   3   3   0   0
  0.8535574E+02  0.6350160E-09  0.6350160E-09  0.6350160E-09  0.5000000E-15
   2000.00000000000     
  CAR 
 unknown system                          
     17.55432423    -26.11672039  301     -6.01894173      1.00000000
    -26.117  0.0000E+00  0.0000E+00
    -25.971  0.0000E+00  0.0000E+00
    -25.826  0.0000E+00  0.0000E+00
    -25.680  0.0000E+00  0.0000E+00
    -25.534  0.0000E+00  0.0000E+00
    -25.389  0.0000E+00  0.0000E+00
    -25.243  0.0000E+00  0.0000E+00
    -25.098  0.0000E+00  0.0000E+00
    -24.952  0.0000E+00  0.0000E+00
    -24.807  0.0000E+00  0.0000E+00
    -24.661  0.1941E-12  0.2853E-13
    -24.515  0.2159E-06  0.3189E-07
    -24.370  0.3898E-02  0.5784E-03
    -24.224  0.1207E+01  0.1801E+00
    -24.079  0.9239E+01  0.1556E+01
    -23.933  0.2952E+01  0.1996E+01
    -23.788  0.2768E-01  0.2000E+01
    -23.642  0.4707E-05  0.2000E+01
    -23.496  0.1301E-10  0.2000E+01
    -23.351  0.0000E+00  0.2000E+01
    -23.205  0.0000E+00  0.2000E+01
    -23.060  0.0000E+00  0.2000E+01
    -22.914  0.0000E+00  0.2000E+01
    -22.769  0.0000E+00  0.2000E+01
    -22.623  0.0000E+00  0.2000E+01
    -22.477  0.0000E+00  0.2000E+01
    -22.332  0.0000E+00  0.2000E+01
    -22.186  0.0000E+00  0.2000E+01
    -22.041  0.0000E+00  0.2000E+01
    -21.895  0.0000E+00  0.2000E+01
    -21.750  0.0000E+00  0.2000E+01
    -21.604  0.0000E+00  0.2000E+01
    -21.458  0.0000E+00  0.2000E+01
    -21.313  0.0000E+00  0.2000E+01
    -21.167  0.0000E+00  0.2000E+01
    -21.022  0.0000E+00  0.2000E+01
    -20.876  0.0000E+00  0.2000E+01
    -20.731  0.0000E+00  0.2000E+01
    -20.585  0.0000E+00  0.2000E+01
    -20.439  0.0000E+00  0.2000E+01
    -20.294  0.0000E+00  0.2000E+01
    -20.148  0.0000E+00  0.2000E+01
    -20.003  0.0000E+00  0.2000E+01
    -19.857  0.0000E+00  0.2000E+01
    -19.712  0.0000E+00  0.2000E+01
    -19.566  0.0000E+00  0.2000E+01
    -19.420  0.0000E+00  0.2000E+01
    -19.275  0.0000E+00  0.2000E+01
    -19.129  0.0000E+00  0.2000E+01
    -18.984  0.0000E+00  0.2000E+01
    -18.838  0.0000E+00  0.2000E+01
    -18.693  0.0000E+00  0.2000E+01
    -18.547  0.0000E+00  0.2000E+01
    -18.402  0.0000E+00  0.2000E+01
    -18.256  0.0000E+00  0.2000E+01
    -18.110  0.0000E+00  0.2000E+01
    -17.965  0.0000E+00  0.2000E+01
    -17.819  0.0000E+00  0.2000E+01
    -17.674  0.0000E+00  0.2000E+01
    -17.528  0.0000E+00  0.2000E+01
    -17.383  0.0000E+00  0.2000E+01
    -17.237  0.0000E+00  0.2000E+01
    -17.091  0.0000E+00  0.2000E+01
    -16.946  0.0000E+00  0.2000E+01
    -16.800  0.0000E+00  0.2000E+01
    -16.655  0.0000E+00  0.2000E+01
    -16.509  0.0000E+00  0.2000E+01
    -16.364  0.0000E+00  0.2000E+01
    -16.218  0.0000E+00  0.2000E+01
    -16.072  0.0000E+00  0.2000E+01
    -15.927  0.0000E+00  0.2000E+01
    -15.781  0.0000E+00  0.2000E+01
    -15.636  0.0000E+00  0.2000E+01
    -15.490  0.0000E+00  0.2000E+01
    -15.345  0.0000E+00  0.2000E+01
    -15.199  0.0000E+00  0.2000E+01
    -15.053  0.0000E+00  0.2000E+01
    -14.908  0.0000E+00  0.2000E+01
    -14.762  0.0000E+00  0.2000E+01
    -14.617  0.0000E+00  0.2000E+01
    -14.471  0.0000E+00  0.2000E+01
    -14.326  0.0000E+00  0.2000E+01
    -14.180  0.0000E+00  0.2000E+01
    -14.034  0.0000E+00  0.2000E+01
    -13.889  0.0000E+00  0.2000E+01
    -13.743  0.9424E-13  0.2000E+01
    -13.598  0.4600E-07  0.2000E+01
    -13.452  0.3346E-03  0.2000E+01
    -13.307  0.5901E-01  0.2009E+01
    -13.161  0.5778E+00  0.2096E+01
    -13.015  0.1095E+01  0.2259E+01
    -12.870  0.1383E+01  0.2463E+01
    -12.724  0.1112E+01  0.2627E+01
    -12.579  0.8647E+00  0.2755E+01
    -12.433  0.7731E+00  0.2870E+01
    -12.288  0.7078E+00  0.2975E+01
    -12.142  0.6697E+00  0.3074E+01
    -11.996  0.6512E+00  0.3171E+01
    -11.851  0.6595E+00  0.3270E+01
    -11.705  0.6896E+00  0.3373E+01
    -11.560  0.7427E+00  0.3484E+01
    -11.414  0.8742E+00  0.3615E+01
    -11.269  0.1232E+01  0.3800E+01
    -11.123  0.1107E+01  0.3966E+01
    -10.977  0.2263E+00  0.3999E+01
    -10.832  0.3902E-02  0.4000E+01
    -10.686  0.2488E-05  0.4000E+01
    -10.541  0.3632E-10  0.4000E+01
    -10.395  0.9053E-17  0.4000E+01
    -10.250  0.3661E-15  0.4000E+01
    -10.104  0.5495E-09  0.4000E+01
     -9.958  0.1344E-04  0.4000E+01
     -9.813  0.7134E-02  0.4001E+01
     -9.667  0.1699E+00  0.4026E+01
     -9.522  0.5538E+00  0.4108E+01
     -9.376  0.7060E+00  0.4212E+01
     -9.231  0.6936E+00  0.4315E+01
     -9.085  0.7468E+00  0.4426E+01
     -8.939  0.8739E+00  0.4557E+01
     -8.794  0.1059E+01  0.4716E+01
     -8.648  0.1039E+01  0.4872E+01
     -8.503  0.8862E+00  0.5005E+01
     -8.357  0.9643E+00  0.5148E+01
     -8.212  0.1103E+01  0.5312E+01
     -8.066  0.1275E+01  0.5500E+01
     -7.920  0.1313E+01  0.5694E+01
     -7.775  0.1003E+01  0.5844E+01
     -7.629  0.7185E+00  0.5952E+01
     -7.484  0.3003E+00  0.5998E+01
     -7.338  0.1575E-01  0.6000E+01
     -7.193  0.2771E-04  0.6000E+01
     -7.047  0.7195E-03  0.6000E+01
     -6.901  0.1299E+00  0.6019E+01
     -6.756  0.1716E+01  0.6271E+01
     -6.610  0.3578E+01  0.6796E+01
     -6.465  0.2867E+01  0.7222E+01
     -6.319  0.2847E+01  0.7651E+01
     -6.174  0.2060E+01  0.7965E+01
     -6.028  0.2301E+00  0.8000E+01
     -5.882  0.1974E-02  0.8000E+01
     -5.737  0.6232E-06  0.8000E+01
     -5.591  0.3202E-11  0.8000E+01
     -5.446  0.0000E+00  0.8000E+01
     -5.300  0.0000E+00  0.8000E+01
     -5.155  0.0000E+00  0.8000E+01
     -5.009  0.0000E+00  0.8000E+01
     -4.863  0.0000E+00  0.8000E+01
     -4.718  0.0000E+00  0.8000E+01
     -4.572  0.0000E+00  0.8000E+01
     -4.427  0.0000E+00  0.8000E+01
     -4.281  0.0000E+00  0.8000E+01
     -4.136  0.0000E+00  0.8000E+01
     -3.990  0.0000E+00  0.8000E+01
     -3.844  0.0000E+00  0.8000E+01
     -3.699  0.0000E+00  0.8000E+01
     -3.553  0.0000E+00  0.8000E+01
     -3.408  0.0000E+00  0.8000E+01
     -3.262  0.0000E+00  0.8000E+01
     -3.117  0.0000E+00  0.8000E+01
     -2.971  0.0000E+00  0.8000E+01
     -2.825  0.0000E+00  0.8000E+01
     -2.680  0.0000E+00  0.8000E+01
     -2.534  0.0000E+00  0.8000E+01
     -2.389  0.0000E+00  0.8000E+01
     -2.243  0.4735E-12  0.8000E+01
     -2.098  0.1150E-06  0.8000E+01
     -1.952  0.6075E-03  0.8000E+01
     -1.807  0.1042E+00  0.8015E+01
     -1.661  0.1145E+01  0.8183E+01
     -1.515  0.2181E+01  0.8502E+01
     -1.370  0.1772E+01  0.8762E+01
     -1.224  0.1385E+01  0.8967E+01
     -1.079  0.1287E+01  0.9159E+01
     -0.933  0.1340E+01  0.9360E+01
     -0.788  0.1649E+01  0.9610E+01
     -0.642  0.1923E+01  0.9902E+01
     -0.496  0.6226E+00  0.9997E+01
     -0.351  0.2014E-01  0.1000E+02
     -0.205  0.2619E-04  0.1000E+02
     -0.060  0.7076E-09  0.1000E+02
      0.086  0.2604E-15  0.1000E+02
      0.231  0.0000E+00  0.1000E+02
      0.377  0.0000E+00  0.1000E+02
      0.523  0.1200E-12  0.1000E+02
      0.668  0.3602E-07  0.1000E+02
      0.814  0.1971E-03  0.1000E+02
      0.959  0.3089E-01  0.1000E+02
      1.105  0.3455E+00  0.1006E+02
      1.250  0.9154E+00  0.1019E+02
      1.396  0.1435E+01  0.1040E+02
      1.542  0.1872E+01  0.1067E+02
      1.687  0.2454E+01  0.1103E+02
      1.833  0.3077E+01  0.1149E+02
      1.978  0.2930E+01  0.1192E+02
      2.124  0.2589E+01  0.1230E+02
      2.269  0.2913E+01  0.1274E+02
      2.415  0.4263E+01  0.1338E+02
      2.561  0.5040E+01  0.1414E+02
      2.706  0.6217E+01  0.1506E+02
      2.852  0.8348E+01  0.1630E+02
      2.997  0.9686E+01  0.1773E+02
      3.143  0.1017E+02  0.1925E+02
      3.288  0.9017E+01  0.2060E+02
      3.434  0.4123E+01  0.2122E+02
      3.580  0.2595E+01  0.2161E+02
      3.725  0.2266E+01  0.2195E+02
      3.871  0.9037E+00  0.2209E+02
      4.016  0.6574E+00  0.2219E+02
      4.162  0.8660E+00  0.2232E+02
      4.307  0.1160E+01  0.2249E+02
      4.453  0.1169E+01  0.2266E+02
      4.599  0.1284E+01  0.2285E+02
      4.744  0.1586E+01  0.2309E+02
      4.890  0.1619E+01  0.2333E+02
      5.035  0.1412E+01  0.2354E+02
      5.181  0.1368E+01  0.2374E+02
      5.326  0.2070E+01  0.2405E+02
      5.472  0.5015E+01  0.2479E+02
      5.618  0.6969E+01  0.2582E+02
      5.763  0.8674E+01  0.2711E+02
      5.909  0.9133E+01  0.2847E+02
      6.054  0.7706E+01  0.2962E+02
      6.200  0.7001E+01  0.3067E+02
      6.345  0.8390E+01  0.3191E+02
      6.491  0.1355E+02  0.3392E+02
      6.637  0.1727E+02  0.3649E+02
      6.782  0.1917E+02  0.3935E+02
      6.928  0.1640E+02  0.4180E+02
      7.073  0.1014E+02  0.4332E+02
      7.219  0.4032E+01  0.4393E+02
      7.364  0.2075E+01  0.4424E+02
      7.510  0.3360E+01  0.4473E+02
      7.656  0.3522E+01  0.4526E+02
      7.801  0.3011E+01  0.4571E+02
      7.947  0.1671E+01  0.4596E+02
      8.092  0.2451E+00  0.4600E+02
      8.238  0.1608E+00  0.4602E+02
      8.383  0.8527E+00  0.4615E+02
      8.529  0.1217E+01  0.4633E+02
      8.675  0.1341E+01  0.4653E+02
      8.820  0.1590E+01  0.4676E+02
      8.966  0.2110E+01  0.4708E+02
      9.111  0.2080E+01  0.4739E+02
      9.257  0.1847E+01  0.4766E+02
      9.402  0.1962E+01  0.4796E+02
      9.548  0.5793E+01  0.4881E+02
      9.694  0.1440E+02  0.5095E+02
      9.839  0.1758E+02  0.5357E+02
      9.985  0.1235E+02  0.5541E+02
     10.130  0.6990E+01  0.5646E+02
     10.276  0.5763E+01  0.5732E+02
     10.421  0.7745E+01  0.5847E+02
     10.567  0.1056E+02  0.6004E+02
     10.713  0.7949E+01  0.6123E+02
     10.858  0.3959E+01  0.6182E+02
     11.004  0.3029E+01  0.6227E+02
     11.149  0.2389E+01  0.6263E+02
     11.295  0.2219E+01  0.6296E+02
     11.440  0.1974E+01  0.6325E+02
     11.586  0.2871E+01  0.6368E+02
     11.732  0.2749E+01  0.6409E+02
     11.877  0.2399E+01  0.6445E+02
     12.023  0.3678E+01  0.6499E+02
     12.168  0.4245E+01  0.6562E+02
     12.314  0.2340E+01  0.6598E+02
     12.459  0.1354E+01  0.6618E+02
     12.605  0.1226E+01  0.6636E+02
     12.751  0.1168E+01  0.6653E+02
     12.896  0.1325E+01  0.6673E+02
     13.042  0.1097E+01  0.6690E+02
     13.187  0.1093E+01  0.6706E+02
     13.333  0.2147E+01  0.6738E+02
     13.478  0.4805E+01  0.6809E+02
     13.624  0.9447E+01  0.6950E+02
     13.770  0.1025E+02  0.7103E+02
     13.915  0.5470E+01  0.7184E+02
     14.061  0.2686E+01  0.7224E+02
     14.206  0.5454E+01  0.7306E+02
     14.352  0.7890E+01  0.7423E+02
     14.497  0.5096E+01  0.7499E+02
     14.643  0.2157E+01  0.7531E+02
     14.788  0.1156E+01  0.7548E+02
     14.934  0.1264E+01  0.7567E+02
     15.080  0.1215E+01  0.7585E+02
     15.225  0.9427E+00  0.7599E+02
     15.371  0.2120E+01  0.7631E+02
     15.516  0.9515E+01  0.7772E+02
     15.662  0.1381E+02  0.7978E+02
     15.807  0.1476E+01  0.8000E+02
     15.953  0.4427E-02  0.8000E+02
     16.099  0.2375E-06  0.8000E+02
     16.244  0.2100E-12  0.8000E+02
     16.390  0.0000E+00  0.8000E+02
     16.535  0.0000E+00  0.8000E+02
     16.681  0.0000E+00  0.8000E+02
     16.826  0.0000E+00  0.8000E+02
     16.972  0.0000E+00  0.8000E+02
     17.118  0.0000E+00  0.8000E+02
     17.263  0.0000E+00  0.8000E+02
     17.409  0.0000E+00  0.8000E+02
     17.554  0.0000E+00  0.8000E+02
     17.58172396    -26.29684968  301     -6.10356444      1.00000000
    -26.297  0.0000E+00  0.0000E+00
    -26.151  0.0000E+00  0.0000E+00
    -26.004  0.0000E+00  0.0000E+00
    -25.858  0.0000E+00  0.0000E+00
    -25.712  0.0000E+00  0.0000E+00
    -25.566  0.0000E+00  0.0000E+00
    -25.419  0.0000E+00  0.0000E+00
    -25.273  0.0000E+00  0.0000E+00
    -25.127  0.0000E+00  0.0000E+00
    -24.980  0.0000E+00  0.0000E+00
    -24.834  0.3697E-15  0.5407E-16
    -24.688  0.3382E-09  0.4947E-10
    -24.542  0.4871E-05  0.7124E-06
    -24.395  0.1281E-02  0.1881E-03
    -24.249  0.9298E-02  0.1548E-02
    -24.103  0.3057E-02  0.1995E-02
    -23.957  0.3276E-04  0.2000E-02
    -23.810  0.6927E-08  0.2000E-02
    -23.664  0.2368E-13  0.2000E-02
    -23.518  0.0000E+00  0.2000E-02
    -23.372  0.0000E+00  0.2000E-02
    -23.225  0.0000E+00  0.2000E-02
    -23.079  0.0000E+00  0.2000E-02
    -22.933  0.0000E+00  0.2000E-02
    -22.787  0.0000E+00  0.2000E-02
    -22.640  0.0000E+00  0.2000E-02
    -22.494  0.0000E+00  0.2000E-02
    -22.348  0.0000E+00  0.2000E-02
    -22.202  0.0000E+00  0.2000E-02
    -22.055  0.0000E+00  0.2000E-02
    -21.909  0.0000E+00  0.2000E-02
    -21.763  0.0000E+00  0.2000E-02
    -21.616  0.0000E+00  0.2000E-02
    -21.470  0.0000E+00  0.2000E-02
    -21.324  0.0000E+00  0.2000E-02
    -21.178  0.0000E+00  0.2000E-02
    -21.031  0.0000E+00  0.2000E-02
    -20.885  0.0000E+00  0.2000E-02
    -20.739  0.0000E+00  0.2000E-02
    -20.593  0.0000E+00  0.2000E-02
    -20.446  0.0000E+00  0.2000E-02
    -20.300  0.0000E+00  0.2000E-02
    -20.154  0.0000E+00  0.2000E-02
    -20.008  0.0000E+00  0.2000E-02
    -19.861  0.0000E+00  0.2000E-02
    -19.715  0.0000E+00  0.2000E-02
    -19.569  0.0000E+00  0.2000E-02
    -19.423  0.0000E+00  0.2000E-02
    -19.276  0.0000E+00  0.2000E-02
    -19.130  0.0000E+00  0.2000E-02
    -18.984  0.0000E+00  0.2000E-02
    -18.837  0.0000E+00  0.2000E-02
    -18.691  0.0000E+00  0.2000E-02
    -18.545  0.0000E+00  0.2000E-02
    -18.399  0.0000E+00  0.2000E-02
    -18.252  0.0000E+00  0.2000E-02
    -18.106  0.0000E+00  0.2000E-02
    -17.960  0.0000E+00  0.2000E-02
    -17.814  0.0000E+00  0.2000E-02
    -17.667  0.0000E+00  0.2000E-02
    -17.521  0.0000E+00  0.2000E-02
    -17.375  0.0000E+00  0.2000E-02
    -17.229  0.0000E+00  0.2000E-02
    -17.082  0.0000E+00  0.2000E-02
    -16.936  0.0000E+00  0.2000E-02
    -16.790  0.0000E+00  0.2000E-02
    -16.644  0.0000E+00  0.2000E-02
    -16.497  0.0000E+00  0.2000E-02
    -16.351  0.0000E+00  0.2000E-02
    -16.205  0.0000E+00  0.2000E-02
    -16.059  0.0000E+00  0.2000E-02
    -15.912  0.0000E+00  0.2000E-02
    -15.766  0.0000E+00  0.2000E-02
    -15.620  0.0000E+00  0.2000E-02
    -15.473  0.0000E+00  0.2000E-02
    -15.327  0.0000E+00  0.2000E-02
    -15.181  0.0000E+00  0.2000E-02
    -15.035  0.0000E+00  0.2000E-02
    -14.888  0.0000E+00  0.2000E-02
    -14.742  0.0000E+00  0.2000E-02
    -14.596  0.0000E+00  0.2000E-02
    -14.450  0.0000E+00  0.2000E-02
    -14.303  0.0000E+00  0.2000E-02
    -14.157  0.0000E+00  0.2000E-02
    -14.011  0.0000E+00  0.2000E-02
    -13.865  0.0000E+00  0.2000E-02
    -13.718  0.0000E+00  0.2000E-02
    -13.572  0.2745E-13  0.2000E-02
    -13.426  0.7700E-08  0.2000E-02
    -13.280  0.3496E-04  0.2005E-02
    -13.133  0.3142E-02  0.2465E-02
    -12.987  0.9259E-02  0.3819E-02
    -12.841  0.1234E-02  0.3999E-02
    -12.694  0.4513E-05  0.4000E-02
    -12.548  0.3007E-09  0.4000E-02
    -12.402  0.3158E-15  0.4000E-02
    -12.256  0.0000E+00  0.4000E-02
    -12.109  0.0000E+00  0.4000E-02
    -11.963  0.0000E+00  0.4000E-02
    -11.817  0.0000E+00  0.4000E-02
    -11.671  0.0000E+00  0.4000E-02
    -11.524  0.0000E+00  0.4000E-02
    -11.378  0.0000E+00  0.4000E-02
    -11.232  0.0000E+00  0.4000E-02
    -11.086  0.0000E+00  0.4000E-02
    -10.939  0.0000E+00  0.4000E-02
    -10.793  0.0000E+00  0.4000E-02
    -10.647  0.0000E+00  0.4000E-02
    -10.501  0.0000E+00  0.4000E-02
    -10.354  0.0000E+00  0.4000E-02
    -10.208  0.0000E+00  0.4000E-02
    -10.062  0.0000E+00  0.4000E-02
     -9.916  0.0000E+00  0.4000E-02
     -9.769  0.0000E+00  0.4000E-02
     -9.623  0.0000E+00  0.4000E-02
     -9.477  0.0000E+00  0.4000E-02
     -9.330  0.0000E+00  0.4000E-02
     -9.184  0.0000E+00  0.4000E-02
     -9.038  0.0000E+00  0.4000E-02
     -8.892  0.0000E+00  0.4000E-02
     -8.745  0.0000E+00  0.4000E-02
     -8.599  0.7591E-17  0.4000E-02
     -8.453  0.1887E-10  0.4000E-02
     -8.307  0.7236E-06  0.4000E-02
     -8.160  0.4817E-03  0.4071E-02
     -8.014  0.7758E-02  0.5205E-02
     -7.868  0.5298E-02  0.5980E-02
     -7.722  0.1359E-03  0.6000E-02
     -7.575  0.7503E-07  0.6000E-02
     -7.429  0.6903E-12  0.6000E-02
     -7.283  0.0000E+00  0.6000E-02
     -7.137  0.4297E-13  0.6000E-02
     -6.990  0.1060E-07  0.6000E-02
     -6.844  0.4249E-04  0.6006E-02
     -6.698  0.3406E-02  0.6504E-02
     -6.551  0.9123E-02  0.7839E-02
     -6.405  0.1099E-02  0.7999E-02
     -6.259  0.3568E-05  0.8000E-02
     -6.113  0.2095E-09  0.8000E-02
     -5.966  0.1928E-15  0.8000E-02
     -5.820  0.0000E+00  0.8000E-02
     -5.674  0.0000E+00  0.8000E-02
     -5.528  0.0000E+00  0.8000E-02
     -5.381  0.0000E+00  0.8000E-02
     -5.235  0.0000E+00  0.8000E-02
     -5.089  0.0000E+00  0.8000E-02
     -4.943  0.0000E+00  0.8000E-02
     -4.796  0.0000E+00  0.8000E-02
     -4.650  0.0000E+00  0.8000E-02
     -4.504  0.0000E+00  0.8000E-02
     -4.358  0.0000E+00  0.8000E-02
     -4.211  0.0000E+00  0.8000E-02
     -4.065  0.0000E+00  0.8000E-02
     -3.919  0.0000E+00  0.8000E-02
     -3.773  0.0000E+00  0.8000E-02
     -3.626  0.0000E+00  0.8000E-02
     -3.480  0.0000E+00  0.8000E-02
     -3.334  0.0000E+00  0.8000E-02
     -3.187  0.0000E+00  0.8000E-02
     -3.041  0.0000E+00  0.8000E-02
     -2.895  0.0000E+00  0.8000E-02
     -2.749  0.0000E+00  0.8000E-02
     -2.602  0.0000E+00  0.8000E-02
     -2.456  0.0000E+00  0.8000E-02
     -2.310  0.0000E+00  0.8000E-02
     -2.164  0.0000E+00  0.8000E-02
     -2.017  0.0000E+00  0.8000E-02
     -1.871  0.1320E-14  0.8000E-02
     -1.725  0.8593E-09  0.8000E-02
     -1.579  0.8869E-05  0.8001E-02
     -1.432  0.1707E-02  0.8251E-02
     -1.286  0.9515E-02  0.9643E-02
     -1.140  0.2424E-02  0.9997E-02
     -0.994  0.1915E-04  0.1000E-01
     -0.847  0.2908E-08  0.1000E-01
     -0.701  0.7079E-14  0.1000E-01
     -0.555  0.0000E+00  0.1000E-01
     -0.408  0.0000E+00  0.1000E-01
     -0.262  0.0000E+00  0.1000E-01
     -0.116  0.0000E+00  0.1000E-01
      0.030  0.0000E+00  0.1000E-01
      0.177  0.0000E+00  0.1000E-01
      0.323  0.0000E+00  0.1000E-01
      0.469  0.0000E+00  0.1000E-01
      0.615  0.0000E+00  0.1000E-01
      0.762  0.0000E+00  0.1000E-01
      0.908  0.0000E+00  0.1000E-01
      1.054  0.1974E-16  0.1000E-01
      1.200  0.3853E-10  0.1000E-01
      1.347  0.1167E-05  0.1000E-01
      1.493  0.6208E-03  0.1009E-01
      1.639  0.8230E-02  0.1129E-01
      1.785  0.4724E-02  0.1199E-01
      1.932  0.5215E-03  0.1206E-01
      2.078  0.7507E-02  0.1316E-01
      2.224  0.5585E-02  0.1398E-01
      2.370  0.1585E-03  0.1400E-01
      2.517  0.5307E-06  0.1400E-01
      2.663  0.3764E-03  0.1406E-01
      2.809  0.9525E-02  0.1545E-01
      2.956  0.2261E-01  0.1876E-01
      3.102  0.1121E-01  0.2039E-01
      3.248  0.9584E-02  0.2180E-01
      3.394  0.1384E-02  0.2200E-01
      3.541  0.5710E-05  0.2200E-01
      3.687  0.4326E-09  0.2200E-01
      3.833  0.5162E-15  0.2200E-01
      3.979  0.0000E+00  0.2200E-01
      4.126  0.0000E+00  0.2200E-01
      4.272  0.0000E+00  0.2200E-01
      4.418  0.4403E-16  0.2200E-01
      4.564  0.6963E-10  0.2200E-01
      4.711  0.1730E-05  0.2200E-01
      4.857  0.7618E-03  0.2211E-01
      5.003  0.8584E-02  0.2337E-01
      5.149  0.4253E-02  0.2399E-01
      5.296  0.5088E-03  0.2406E-01
      5.442  0.1048E-01  0.2560E-01
      5.588  0.1499E-01  0.2779E-01
      5.735  0.1439E-02  0.2800E-01
      5.881  0.7447E-03  0.2811E-01
      6.027  0.8608E-02  0.2937E-01
      6.173  0.8533E-02  0.3062E-01
      6.320  0.8695E-02  0.3189E-01
      6.466  0.2662E-02  0.3228E-01
      6.612  0.1929E-01  0.3510E-01
      6.758  0.2271E-01  0.3842E-01
      6.905  0.2169E-01  0.4159E-01
      7.051  0.1281E-01  0.4347E-01
      7.197  0.3607E-02  0.4399E-01
      7.343  0.7204E-04  0.4400E-01
      7.490  0.2688E-02  0.4440E-01
      7.636  0.9443E-02  0.4578E-01
      7.782  0.1512E-02  0.4600E-01
      7.928  0.6867E-05  0.4600E-01
      8.075  0.5761E-09  0.4600E-01
      8.221  0.7651E-15  0.4600E-01
      8.367  0.0000E+00  0.4600E-01
      8.513  0.0000E+00  0.4600E-01
      8.660  0.0000E+00  0.4600E-01
      8.806  0.3089E-15  0.4600E-01
      8.952  0.2986E-09  0.4600E-01
      9.099  0.4661E-05  0.4600E-01
      9.245  0.1462E-02  0.4621E-01
      9.391  0.1559E-01  0.4850E-01
      9.537  0.1001E-01  0.4996E-01
      9.684  0.5277E-02  0.5073E-01
      9.830  0.1908E-01  0.5352E-01
      9.976  0.1205E-01  0.5528E-01
     10.122  0.4849E-02  0.5599E-01
     10.269  0.3870E-02  0.5656E-01
     10.415  0.8923E-02  0.5786E-01
     10.561  0.3042E-02  0.5831E-01
     10.707  0.9610E-02  0.5971E-01
     10.854  0.5652E-02  0.6054E-01
     11.000  0.9147E-02  0.6188E-01
     11.146  0.6591E-02  0.6284E-01
     11.292  0.7489E-02  0.6394E-01
     11.439  0.4185E-03  0.6400E-01
     11.585  0.5574E-06  0.6400E-01
     11.731  0.1871E-09  0.6400E-01
     11.878  0.3164E-05  0.6400E-01
     12.024  0.1035E-02  0.6415E-01
     12.170  0.9046E-02  0.6547E-01
     12.316  0.3543E-02  0.6599E-01
     12.463  0.4683E-04  0.6600E-01
     12.609  0.1244E-07  0.6600E-01
     12.755  0.5381E-13  0.6600E-01
     12.901  0.0000E+00  0.6600E-01
     13.048  0.8350E-17  0.6600E-01
     13.194  0.2083E-10  0.6600E-01
     13.340  0.7732E-06  0.6600E-01
     13.486  0.4990E-03  0.6607E-01
     13.633  0.7858E-02  0.6722E-01
     13.779  0.8689E-02  0.6849E-01
     13.925  0.1710E-01  0.7099E-01
     14.071  0.6860E-02  0.7200E-01
     14.218  0.5460E-02  0.7280E-01
     14.364  0.7747E-02  0.7393E-01
     14.510  0.4790E-03  0.7400E-01
     14.656  0.7161E-06  0.7400E-01
     14.803  0.2642E-08  0.7400E-01
     14.949  0.1795E-04  0.7400E-01
     15.095  0.2358E-02  0.7435E-01
     15.242  0.1030E-01  0.7585E-01
     15.388  0.1039E-01  0.7737E-01
     15.534  0.7302E-02  0.7844E-01
     15.680  0.9372E-02  0.7981E-01
     15.827  0.1281E-02  0.8000E-01
     15.973  0.4871E-05  0.8000E-01
     16.119  0.3382E-09  0.8000E-01
     16.265  0.3704E-15  0.8000E-01
     16.412  0.0000E+00  0.8000E-01
     16.558  0.0000E+00  0.8000E-01
     16.704  0.0000E+00  0.8000E-01
     16.850  0.0000E+00  0.8000E-01
     16.997  0.0000E+00  0.8000E-01
     17.143  0.0000E+00  0.8000E-01
     17.289  0.0000E+00  0.8000E-01
     17.435  0.0000E+00  0.8000E-01
     17.582  0.0000E+00  0.8000E-01
