    3    3 1000    1
  0.8535574E+02  0.6350160E-09  0.6350160E-09  0.6350160E-09  0.5000000E-15
   2000.00000000000     
  CAR 
 unknown system                          
      8      1     40
 
  0.1262379E-14  0.1262379E-14  0.1262379E-14  0.1000000E+01
    1      -24.302369   1.000000
    2      -13.081568   1.000000
    3       -8.032504   1.000000
    4       -6.650543   1.000000
    5       -1.351141   0.000000
    6        1.612438   0.000000
    7        2.063692   0.000000
    8        2.799656   0.000000
    9        2.884213   0.000000
   10        2.947329   0.000000
   11        3.158086   0.000000
   12        4.969418   0.000000
   13        5.429382   0.000000
   14        5.494786   0.000000
   15        5.994281   0.000000
   16        6.207678   0.000000
   17        6.568688   0.000000
   18        6.572821   0.000000
   19        6.702256   0.000000
   20        6.787894   0.000000
   21        6.851850   0.000000
   22        7.006410   0.000000
   23        7.549588   0.000000
   24        9.339549   0.000000
   25        9.394449   0.000000
   26        9.729157   0.000000
   27        9.771908   0.000000
   28        9.949960   0.000000
   29       10.309915   0.000000
   30       10.632991   0.000000
   31       10.896651   0.000000
   32       11.160133   0.000000
   33       12.125095   0.000000
   34       13.613117   0.000000
   35       13.832863   0.000000
   36       13.908499   0.000000
   37       14.235913   0.000000
   38       15.161736   0.000000
   39       15.353749   0.000000
   40       15.587243   0.000000
