       N       E                     dE             d eps       ncg     rms          rms(c)
DAV:   1     0.995087084222E+01    0.99509E+01   -0.23413E+03    80   0.873E+01
DAV:   2    -0.162332921989E+02   -0.26184E+02   -0.26184E+02   120   0.259E+01
DAV:   3    -0.163246685432E+02   -0.91376E-01   -0.91376E-01   120   0.217E+00
DAV:   4    -0.163246739603E+02   -0.54171E-05   -0.54171E-05   160   0.183E-02
DAV:   5    -0.163246739603E+02   -0.98908E-11   -0.10473E-10    80   0.283E-05    0.787E+00
DAV:   6    -0.143813797654E+02    0.19433E+01   -0.94693E+00    80   0.436E+00    0.306E+00
DAV:   7    -0.142648641215E+02    0.11652E+00   -0.58589E-02   120   0.437E-01    0.186E+00
DAV:   8    -0.141875395721E+02    0.77325E-01   -0.74646E-02   120   0.521E-01    0.216E-01
DAV:   9    -0.141984080773E+02   -0.10869E-01   -0.70912E-03   120   0.104E-01    0.125E-01
DAV:  10    -0.142023961548E+02   -0.39881E-02   -0.16881E-03   120   0.734E-02    0.414E-02
DAV:  11    -0.142064239894E+02   -0.40278E-02   -0.11922E-03   120   0.375E-02    0.248E-02
DAV:  12    -0.142068877896E+02   -0.46380E-03   -0.21064E-04   120   0.176E-02    0.950E-03
DAV:  13    -0.142071900391E+02   -0.30225E-03   -0.65120E-05   120   0.911E-03    0.201E-03
DAV:  14    -0.142072046772E+02   -0.14638E-04   -0.84575E-07   120   0.120E-03
    1 T=  1914. E= -.13712376E+02 F= -.14207205E+02 E0= -.14207205E+02  EK= 0.49483E+00 SP= 0.00E+00 SK= 0.00E+00
       N       E                     dE             d eps       ncg     rms          rms(c)
DAV:   1    -0.141290129835E+02    0.78177E-01   -0.91263E-01    80   0.177E+00    0.595E-01
DAV:   2    -0.141235136435E+02    0.54993E-02   -0.36889E-02   120   0.279E-01    0.226E-01
DAV:   3    -0.141233452789E+02    0.16836E-03   -0.25944E-04   120   0.377E-02    0.124E-01
DAV:   4    -0.141234003741E+02   -0.55095E-04   -0.26575E-04   120   0.377E-02
    2 T=  1596. E= -.13710722E+02 F= -.14123400E+02 E0= -.14123400E+02  EK= 0.41268E+00 SP= 0.00E+00 SK= 0.00E+00
       N       E                     dE             d eps       ncg     rms          rms(c)
DAV:   1    -0.139923361731E+02    0.13101E+00   -0.17078E-01   120   0.586E-01    0.581E-02
DAV:   2    -0.139924106744E+02   -0.74501E-04   -0.57537E-04   120   0.533E-02
    3 T=  1109. E= -.13705614E+02 F= -.13992411E+02 E0= -.13992411E+02  EK= 0.28680E+00 SP= 0.00E+00 SK= 0.00E+00
       N       E                     dE             d eps       ncg     rms          rms(c)
DAV:   1    -0.138958789023E+02    0.96457E-01   -0.88321E-02   120   0.461E-01    0.671E-02
DAV:   2    -0.138958786969E+02    0.20538E-06   -0.49985E-04    80   0.484E-02
    4 T=   753. E= -.13701237E+02 F= -.13895879E+02 E0= -.13895879E+02  EK= 0.19464E+00 SP= 0.00E+00 SK= 0.00E+00
       N       E                     dE             d eps       ncg     rms          rms(c)
DAV:   1    -0.139005801787E+02   -0.47013E-02   -0.42721E-02   120   0.350E-01    0.932E-02
DAV:   2    -0.139006359383E+02   -0.55760E-04   -0.23127E-04   160   0.370E-02
    5 T=   766. E= -.13702629E+02 F= -.13900636E+02 E0= -.13900636E+02  EK= 0.19801E+00 SP= 0.00E+00 SK= 0.00E+00
       N       E                     dE             d eps       ncg     rms          rms(c)
DAV:   1    -0.139846495360E+02   -0.84069E-01   -0.61761E-02   120   0.403E-01    0.447E-02
DAV:   2    -0.139847537912E+02   -0.10426E-03   -0.36837E-04   120   0.477E-02    0.269E-02
DAV:   3    -0.139848598692E+02   -0.10608E-03   -0.12637E-05   120   0.724E-03    0.100E-02
DAV:   4    -0.139849598253E+02   -0.99956E-04   -0.86755E-06   120   0.459E-03
    6 T=  1070. E= -.13708365E+02 F= -.13984960E+02 E0= -.13984960E+02  EK= 0.27660E+00 SP= 0.00E+00 SK= 0.00E+00
       N       E                     dE             d eps       ncg     rms          rms(c)
DAV:   1    -0.140631782187E+02   -0.78318E-01   -0.10996E-01   120   0.519E-01    0.407E-02
DAV:   2    -0.140632681913E+02   -0.89973E-04   -0.49611E-04   120   0.581E-02
    7 T=  1359. E= -.13711879E+02 F= -.14063268E+02 E0= -.14063268E+02  EK= 0.35139E+00 SP= 0.00E+00 SK= 0.00E+00
       N       E                     dE             d eps       ncg     rms          rms(c)
DAV:   1    -0.140752715271E+02   -0.12093E-01   -0.13150E-01   120   0.547E-01    0.598E-02
DAV:   2    -0.140754323133E+02   -0.16079E-03   -0.75959E-04    80   0.714E-02    0.292E-02
DAV:   3    -0.140755383656E+02   -0.10605E-03   -0.12416E-05   120   0.640E-03    0.158E-02
DAV:   4    -0.140756945549E+02   -0.15619E-03   -0.20676E-05   120   0.675E-03    0.271E-03
DAV:   5    -0.140757616044E+02   -0.67050E-04   -0.74731E-06   120   0.307E-03
    8 T=  1409. E= -.13711609E+02 F= -.14075762E+02 E0= -.14075762E+02  EK= 0.36415E+00 SP= 0.00E+00 SK= 0.00E+00
       N       E                     dE             d eps       ncg     rms          rms(c)
DAV:   1    -0.140193021830E+02    0.56392E-01   -0.12192E-01   120   0.515E-01    0.260E-02
DAV:   2    -0.140193855142E+02   -0.83331E-04   -0.40010E-04   120   0.514E-02
    9 T=  1201. E= -.13709005E+02 F= -.14019386E+02 E0= -.14019386E+02  EK= 0.31038E+00 SP= 0.00E+00 SK= 0.00E+00
       N       E                     dE             d eps       ncg     rms          rms(c)
DAV:   1    -0.139257382384E+02    0.93564E-01   -0.91496E-02   120   0.441E-01    0.221E-02
DAV:   2    -0.139258531446E+02   -0.11491E-03   -0.19842E-04   120   0.380E-02    0.142E-02
DAV:   3    -0.139259900637E+02   -0.13692E-03   -0.10502E-05   120   0.480E-03    0.439E-03
DAV:   4    -0.139260827411E+02   -0.92677E-04   -0.73284E-06   120   0.314E-03
   10 T=   849. E= -.13706520E+02 F= -.13926083E+02 E0= -.13926083E+02  EK= 0.21956E+00 SP= 0.00E+00 SK= 0.00E+00
       N       E                     dE             d eps       ncg     rms          rms(c)
DAV:   1    -0.138323110133E+02    0.93679E-01   -0.57978E-02   120   0.358E-01    0.227E-02
DAV:   2    -0.138324265063E+02   -0.11549E-03   -0.23202E-04   120   0.367E-02    0.146E-02
DAV:   3    -0.138325523168E+02   -0.12581E-03   -0.15098E-05   120   0.586E-03    0.471E-03
DAV:   4    -0.138326279526E+02   -0.75636E-04   -0.79633E-06   120   0.347E-03
   11 T=   495. E= -.13704644E+02 F= -.13832628E+02 E0= -.13832628E+02  EK= 0.12798E+00 SP= 0.00E+00 SK= 0.00E+00
       N       E                     dE             d eps       ncg     rms          rms(c)
DAV:   1    -0.137678786488E+02    0.64674E-01   -0.28873E-02   120   0.270E-01    0.159E-02
DAV:   2    -0.137679249577E+02   -0.46309E-04   -0.18902E-04   120   0.325E-02
   12 T=   249. E= -.13703552E+02 F= -.13767925E+02 E0= -.13767925E+02  EK= 0.64373E-01 SP= 0.00E+00 SK= 0.00E+00
       N       E                     dE             d eps       ncg     rms          rms(c)
DAV:   1    -0.137489177298E+02    0.18961E-01   -0.11482E-02   120   0.169E-01    0.224E-02
DAV:   2    -0.137489466691E+02   -0.28939E-04   -0.86333E-05    80   0.219E-02
   13 T=   177. E= -.13703237E+02 F= -.13748947E+02 E0= -.13748947E+02  EK= 0.45709E-01 SP= 0.00E+00 SK= 0.00E+00
       N       E                     dE             d eps       ncg     rms          rms(c)
DAV:   1    -0.137808252994E+02   -0.31908E-01   -0.11253E-02   120   0.104E-01    0.111E-02
DAV:   2    -0.137808555705E+02   -0.30271E-04   -0.12814E-05   120   0.834E-03
   14 T=   299. E= -.13703578E+02 F= -.13780856E+02 E0= -.13780856E+02  EK= 0.77277E-01 SP= 0.00E+00 SK= 0.00E+00
       N       E                     dE             d eps       ncg     rms          rms(c)
DAV:   1    -0.138578452855E+02   -0.77020E-01   -0.29587E-02   120   0.156E-01    0.117E-02
DAV:   2    -0.138578997491E+02   -0.54464E-04   -0.49758E-05   120   0.170E-02
   15 T=   593. E= -.13704586E+02 F= -.13857900E+02 E0= -.13857900E+02  EK= 0.15331E+00 SP= 0.00E+00 SK= 0.00E+00
       N       E                     dE             d eps       ncg     rms          rms(c)
DAV:   1    -0.139634408144E+02   -0.10560E+00   -0.64023E-02   120   0.256E-01    0.110E-02
DAV:   2    -0.139634673924E+02   -0.26578E-04   -0.15020E-04   120   0.294E-02
   16 T=   994. E= -.13706461E+02 F= -.13963467E+02 E0= -.13963467E+02  EK= 0.25701E+00 SP= 0.00E+00 SK= 0.00E+00
       N       E                     dE             d eps       ncg     rms          rms(c)
DAV:   1    -0.140695463585E+02   -0.10611E+00   -0.10910E-01   120   0.364E-01    0.234E-02
DAV:   2    -0.140696283460E+02   -0.81988E-04   -0.47095E-04   120   0.503E-02
   17 T=  1396. E= -.13708725E+02 F= -.14069628E+02 E0= -.14069628E+02  EK= 0.36090E+00 SP= 0.00E+00 SK= 0.00E+00
       N       E                     dE             d eps       ncg     rms          rms(c)
DAV:   1    -0.141412697895E+02   -0.71723E-01   -0.15262E-01   120   0.460E-01    0.289E-02
DAV:   2    -0.141413456565E+02   -0.75867E-04   -0.48687E-04   120   0.541E-02
   18 T=  1665. E= -.13710941E+02 F= -.14141346E+02 E0= -.14141346E+02  EK= 0.43040E+00 SP= 0.00E+00 SK= 0.00E+00
       N       E                     dE             d eps       ncg     rms          rms(c)
DAV:   1    -0.141472382860E+02   -0.59685E-02   -0.16629E-01    80   0.486E-01    0.189E-02
DAV:   2    -0.141473196428E+02   -0.81357E-04   -0.77773E-04   120   0.693E-02
   19 T=  1685. E= -.13711617E+02 F= -.14147320E+02 E0= -.14147320E+02  EK= 0.43570E+00 SP= 0.00E+00 SK= 0.00E+00
       N       E                     dE             d eps       ncg     rms          rms(c)
DAV:   1    -0.140834476894E+02    0.63791E-01   -0.15974E-01   120   0.584E-01    0.670E-02
DAV:   2    -0.140835375809E+02   -0.89891E-04   -0.83544E-04   120   0.667E-02
   20 T=  1450. E= -.13708746E+02 F= -.14083538E+02 E0= -.14083538E+02  EK= 0.37479E+00 SP= 0.00E+00 SK= 0.00E+00
       N       E                     dE             d eps       ncg     rms          rms(c)
DAV:   1    -0.139967921306E+02    0.86656E-01   -0.10717E-01   120   0.520E-01    0.124E-01
DAV:   2    -0.139968851587E+02   -0.93028E-04   -0.89986E-04   120   0.659E-02
   21 T=  1134. E= -.13703601E+02 F= -.13996885E+02 E0= -.13996885E+02  EK= 0.29328E+00 SP= 0.00E+00 SK= 0.00E+00
       N       E                     dE             d eps       ncg     rms          rms(c)
DAV:   1    -0.139642728622E+02    0.32519E-01   -0.52797E-02   120   0.387E-01    0.110E-01
DAV:   2    -0.139643667221E+02   -0.93860E-04   -0.38039E-04   120   0.431E-02
   22 T=  1017. E= -.13701545E+02 F= -.13964367E+02 E0= -.13964367E+02  EK= 0.26282E+00 SP= 0.00E+00 SK= 0.00E+00
       N       E                     dE             d eps       ncg     rms          rms(c)
DAV:   1    -0.140182957421E+02   -0.54023E-01   -0.41664E-02   120   0.307E-01    0.451E-02
DAV:   2    -0.140183823173E+02   -0.86575E-04   -0.13727E-04    80   0.271E-02
   23 T=  1213. E= -.13704824E+02 F= -.14018382E+02 E0= -.14018382E+02  EK= 0.31356E+00 SP= 0.00E+00 SK= 0.00E+00
       N       E                     dE             d eps       ncg     rms          rms(c)
DAV:   1    -0.141108111591E+02   -0.92515E-01   -0.77255E-02   120   0.391E-01    0.459E-02
DAV:   2    -0.141109917287E+02   -0.18057E-03   -0.37231E-04   120   0.482E-02    0.252E-02
DAV:   3    -0.141111737815E+02   -0.18205E-03   -0.11717E-05   120   0.597E-03    0.986E-03
DAV:   4    -0.141113390887E+02   -0.16531E-03   -0.13778E-05   160   0.516E-03    0.276E-03
DAV:   5    -0.141114439327E+02   -0.10484E-03   -0.14831E-05   120   0.408E-03    0.131E-03
DAV:   6    -0.141114612072E+02   -0.17275E-04   -0.23331E-06   120   0.152E-03
   24 T=  1553. E= -.13709898E+02 F= -.14111461E+02 E0= -.14111461E+02  EK= 0.40156E+00 SP= 0.00E+00 SK= 0.00E+00
       N       E                     dE             d eps       ncg     rms          rms(c)
DAV:   1    -0.141688831669E+02   -0.57439E-01   -0.11798E-01   120   0.486E-01    0.354E-02
DAV:   2    -0.141690554834E+02   -0.17232E-03   -0.58534E-04   120   0.601E-02    0.152E-02
DAV:   3    -0.141691652200E+02   -0.10974E-03   -0.64728E-06   160   0.446E-03    0.853E-03
DAV:   4    -0.141693533639E+02   -0.18814E-03   -0.18396E-05   160   0.599E-03    0.247E-03
DAV:   5    -0.141694466834E+02   -0.93320E-04   -0.11731E-05   160   0.387E-03
   25 T=  1770. E= -.13711753E+02 F= -.14169447E+02 E0= -.14169447E+02  EK= 0.45769E+00 SP= 0.00E+00 SK= 0.00E+00
       N       E                     dE             d eps       ncg     rms          rms(c)
DAV:   1    -0.141571562229E+02    0.12197E-01   -0.13150E-01   160   0.515E-01    0.418E-02
DAV:   2    -0.141571667071E+02   -0.10484E-04   -0.27610E-04    80   0.394E-02
   26 T=  1727. E= -.13710728E+02 F= -.14157167E+02 E0= -.14157167E+02  EK= 0.44644E+00 SP= 0.00E+00 SK= 0.00E+00
       N       E                     dE             d eps       ncg     rms          rms(c)
DAV:   1    -0.140834116319E+02    0.73745E-01   -0.11622E-01   120   0.492E-01    0.521E-02
DAV:   2    -0.140834454856E+02   -0.33854E-04   -0.34532E-04   160   0.462E-02
   27 T=  1450. E= -.13708529E+02 F= -.14083445E+02 E0= -.14083445E+02  EK= 0.37492E+00 SP= 0.00E+00 SK= 0.00E+00
       N       E                     dE             d eps       ncg     rms          rms(c)
DAV:   1    -0.139783469622E+02    0.10506E+00   -0.85678E-02   120   0.432E-01    0.354E-02
DAV:   2    -0.139783650146E+02   -0.18052E-04   -0.14429E-04   160   0.297E-02
   28 T=  1052. E= -.13706444E+02 F= -.13978365E+02 E0= -.13978365E+02  EK= 0.27192E+00 SP= 0.00E+00 SK= 0.00E+00
       N       E                     dE             d eps       ncg     rms          rms(c)
DAV:   1    -0.138735048272E+02    0.10484E+00   -0.57128E-02   160   0.368E-01    0.294E-02
DAV:   2    -0.138735034924E+02    0.13348E-05   -0.88417E-05    80   0.222E-02
   29 T=   652. E= -.13704900E+02 F= -.13873503E+02 E0= -.13873503E+02  EK= 0.16860E+00 SP= 0.00E+00 SK= 0.00E+00
       N       E                     dE             d eps       ncg     rms          rms(c)
DAV:   1    -0.137931661995E+02    0.80339E-01   -0.29911E-02   120   0.280E-01    0.568E-02
DAV:   2    -0.137931961723E+02   -0.29973E-04   -0.16879E-04   160   0.306E-02
   30 T=   346. E= -.13703849E+02 F= -.13793196E+02 E0= -.13793196E+02  EK= 0.89347E-01 SP= 0.00E+00 SK= 0.00E+00
       N       E                     dE             d eps       ncg     rms          rms(c)
DAV:   1    -0.137527662682E+02    0.40400E-01   -0.12719E-02   160   0.177E-01    0.185E-02
DAV:   2    -0.137528005028E+02   -0.34235E-04   -0.51818E-05   120   0.162E-02
   31 T=   191. E= -.13703423E+02 F= -.13752801E+02 E0= -.13752801E+02  EK= 0.49378E-01 SP= 0.00E+00 SK= 0.00E+00
       N       E                     dE             d eps       ncg     rms          rms(c)
DAV:   1    -0.137584729249E+02   -0.57067E-02   -0.11195E-02   120   0.116E-01    0.136E-02
DAV:   2    -0.137585006257E+02   -0.27701E-04   -0.13289E-05   120   0.917E-03
   32 T=   212. E= -.13703615E+02 F= -.13758501E+02 E0= -.13758501E+02  EK= 0.54886E-01 SP= 0.00E+00 SK= 0.00E+00
       N       E                     dE             d eps       ncg     rms          rms(c)
DAV:   1    -0.138075876895E+02   -0.49115E-01   -0.24805E-02   120   0.150E-01    0.112E-02
DAV:   2    -0.138076082550E+02   -0.20566E-04   -0.32512E-05    80   0.148E-02
   33 T=   399. E= -.13704340E+02 F= -.13807608E+02 E0= -.13807608E+02  EK= 0.10327E+00 SP= 0.00E+00 SK= 0.00E+00
       N       E                     dE             d eps       ncg     rms          rms(c)
DAV:   1    -0.138886753881E+02   -0.81088E-01   -0.53958E-02   120   0.233E-01    0.824E-03
DAV:   2    -0.138887429050E+02   -0.67517E-04   -0.12514E-04   120   0.280E-02
   34 T=   709. E= -.13705559E+02 F= -.13888743E+02 E0= -.13888743E+02  EK= 0.18318E+00 SP= 0.00E+00 SK= 0.00E+00
       N       E                     dE             d eps       ncg     rms          rms(c)
DAV:   1    -0.139820231384E+02   -0.93348E-01   -0.94393E-02   120   0.322E-01    0.190E-02
DAV:   2    -0.139820749242E+02   -0.51786E-04   -0.17705E-04   160   0.332E-02
   35 T=  1062. E= -.13707426E+02 F= -.13982075E+02 E0= -.13982075E+02  EK= 0.27465E+00 SP= 0.00E+00 SK= 0.00E+00
       N       E                     dE             d eps       ncg     rms          rms(c)
DAV:   1    -0.140598181703E+02   -0.77795E-01   -0.13932E-01   160   0.398E-01    0.284E-02
DAV:   2    -0.140598380779E+02   -0.19908E-04   -0.95003E-05   120   0.261E-02
   36 T=  1355. E= -.13709565E+02 F= -.14059838E+02 E0= -.14059838E+02  EK= 0.35027E+00 SP= 0.00E+00 SK= 0.00E+00
       N       E                     dE             d eps       ncg     rms          rms(c)
DAV:   1    -0.140918349939E+02   -0.32017E-01   -0.17125E-01   120   0.443E-01    0.175E-02
DAV:   2    -0.140919241189E+02   -0.89125E-04   -0.22118E-04   120   0.386E-02
   37 T=  1474. E= -.13710964E+02 F= -.14091924E+02 E0= -.14091924E+02  EK= 0.38096E+00 SP= 0.00E+00 SK= 0.00E+00
       N       E                     dE             d eps       ncg     rms          rms(c)
DAV:   1    -0.140608986841E+02    0.30936E-01   -0.17368E-01   120   0.461E-01    0.332E-02
DAV:   2    -0.140609500424E+02   -0.51358E-04   -0.39030E-04   120   0.457E-02
   38 T=  1356. E= -.13710484E+02 F= -.14060950E+02 E0= -.14060950E+02  EK= 0.35047E+00 SP= 0.00E+00 SK= 0.00E+00
       N       E                     dE             d eps       ncg     rms          rms(c)
DAV:   1    -0.139838176279E+02    0.77081E-01   -0.14244E-01   120   0.447E-01    0.671E-02
DAV:   2    -0.139838829906E+02   -0.65363E-04   -0.43994E-04   120   0.469E-02
   39 T=  1073. E= -.13706615E+02 F= -.13983883E+02 E0= -.13983883E+02  EK= 0.27727E+00 SP= 0.00E+00 SK= 0.00E+00
       N       E                     dE             d eps       ncg     rms          rms(c)
DAV:   1    -0.139236347711E+02    0.60183E-01   -0.86491E-02   120   0.385E-01    0.810E-02
DAV:   2    -0.139237191136E+02   -0.84342E-04   -0.52604E-04    80   0.450E-02
   40 T=   858. E= -.13701947E+02 F= -.13923719E+02 E0= -.13923719E+02  EK= 0.22177E+00 SP= 0.00E+00 SK= 0.00E+00
       N       E                     dE             d eps       ncg     rms          rms(c)
DAV:   1    -0.139474332814E+02   -0.23799E-01   -0.51758E-02   120   0.347E-01    0.648E-02
DAV:   2    -0.139475239778E+02   -0.90696E-04   -0.25818E-04   160   0.352E-02
   41 T=   949. E= -.13702125E+02 F= -.13947524E+02 E0= -.13947524E+02  EK= 0.24540E+00 SP= 0.00E+00 SK= 0.00E+00
       N       E                     dE             d eps       ncg     rms          rms(c)
DAV:   1    -0.140527513405E+02   -0.10532E+00   -0.68500E-02   120   0.421E-01    0.273E-02
DAV:   2    -0.140528117658E+02   -0.60425E-04   -0.24545E-04   160   0.399E-02
   42 T=  1336. E= -.13707350E+02 F= -.14052812E+02 E0= -.14052812E+02  EK= 0.34546E+00 SP= 0.00E+00 SK= 0.00E+00
       N       E                     dE             d eps       ncg     rms          rms(c)
DAV:   1    -0.141645534217E+02   -0.11180E+00   -0.11757E-01   120   0.551E-01    0.466E-02
DAV:   2    -0.141646872362E+02   -0.13381E-03   -0.63256E-04    80   0.650E-02    0.209E-02
DAV:   3    -0.141647738954E+02   -0.86659E-04   -0.68531E-06   120   0.498E-03
   43 T=  1753. E= -.13711640E+02 F= -.14164774E+02 E0= -.14164774E+02  EK= 0.45313E+00 SP= 0.00E+00 SK= 0.00E+00
       N       E                     dE             d eps       ncg     rms          rms(c)
DAV:   1    -0.142132524830E+02   -0.48565E-01   -0.15304E-01   120   0.617E-01    0.392E-02
DAV:   2    -0.142133355165E+02   -0.83033E-04   -0.76336E-04   120   0.724E-02
   44 T=  1937. E= -.13712507E+02 F= -.14213336E+02 E0= -.14213336E+02  EK= 0.50083E+00 SP= 0.00E+00 SK= 0.00E+00
       N       E                     dE             d eps       ncg     rms          rms(c)
DAV:   1    -0.141795958999E+02    0.33657E-01   -0.15201E-01   120   0.611E-01    0.617E-02
DAV:   2    -0.141796487824E+02   -0.52883E-04   -0.75810E-04   120   0.697E-02
   45 T=  1814. E= -.13710671E+02 F= -.14179649E+02 E0= -.14179649E+02  EK= 0.46898E+00 SP= 0.00E+00 SK= 0.00E+00
       N       E                     dE             d eps       ncg     rms          rms(c)
DAV:   1    -0.140872796993E+02    0.92316E-01   -0.14347E-01   120   0.668E-01    0.100E-01
DAV:   2    -0.140872881706E+02   -0.84713E-05   -0.10736E-03   120   0.735E-02    0.487E-02
DAV:   3    -0.140873108003E+02   -0.22630E-04   -0.22222E-05   120   0.946E-03
   46 T=  1467. E= -.13708182E+02 F= -.14087311E+02 E0= -.14087311E+02  EK= 0.37913E+00 SP= 0.00E+00 SK= 0.00E+00
       N       E                     dE             d eps       ncg     rms          rms(c)
DAV:   1    -0.139736426300E+02    0.11365E+00   -0.12606E-01    80   0.638E-01    0.124E-01
DAV:   2    -0.139738233176E+02   -0.18069E-03   -0.26607E-03   120   0.110E-01    0.781E-02
DAV:   3    -0.139738816896E+02   -0.58372E-04   -0.10677E-04   120   0.218E-02
   47 T=  1036. E= -.13706007E+02 F= -.13973882E+02 E0= -.13973882E+02  EK= 0.26787E+00 SP= 0.00E+00 SK= 0.00E+00
       N       E                     dE             d eps       ncg     rms          rms(c)
DAV:   1    -0.138727927072E+02    0.10103E+00   -0.59847E-02   120   0.389E-01    0.409E-02
DAV:   2    -0.138728640263E+02   -0.71319E-04   -0.44967E-04   120   0.476E-02
   48 T=   652. E= -.13704377E+02 F= -.13872864E+02 E0= -.13872864E+02  EK= 0.16849E+00 SP= 0.00E+00 SK= 0.00E+00
       N       E                     dE             d eps       ncg     rms          rms(c)
DAV:   1    -0.138076165295E+02    0.65176E-01   -0.31594E-02   120   0.273E-01    0.273E-02
DAV:   2    -0.138076924121E+02   -0.75883E-04   -0.14148E-04   120   0.302E-02
   49 T=   403. E= -.13703557E+02 F= -.13807692E+02 E0= -.13807692E+02  EK= 0.10414E+00 SP= 0.00E+00 SK= 0.00E+00
       N       E                     dE             d eps       ncg     rms          rms(c)
DAV:   1    -0.137903425668E+02    0.17274E-01   -0.21292E-02   120   0.184E-01    0.258E-02
DAV:   2    -0.137903842434E+02   -0.41677E-04   -0.36918E-05   120   0.154E-02
   50 T=   336. E= -.13703606E+02 F= -.13790384E+02 E0= -.13790384E+02  EK= 0.86779E-01 SP= 0.00E+00 SK= 0.00E+00
       N       E                     dE             d eps       ncg     rms          rms(c)
DAV:   1    -0.138214968836E+02   -0.31154E-01   -0.30412E-02   120   0.166E-01    0.143E-02
DAV:   2    -0.138215462664E+02   -0.49383E-04   -0.38390E-05    80   0.146E-02
   51 T=   454. E= -.13704169E+02 F= -.13821546E+02 E0= -.13821546E+02  EK= 0.11738E+00 SP= 0.00E+00 SK= 0.00E+00
       N       E                     dE             d eps       ncg     rms          rms(c)
DAV:   1    -0.138911237416E+02   -0.69627E-01   -0.57631E-02   120   0.215E-01    0.133E-02
DAV:   2    -0.138911798634E+02   -0.56122E-04   -0.67649E-05   120   0.192E-02
   52 T=   718. E= -.13705573E+02 F= -.13891180E+02 E0= -.13891180E+02  EK= 0.18561E+00 SP= 0.00E+00 SK= 0.00E+00
       N       E                     dE             d eps       ncg     rms          rms(c)
DAV:   1    -0.139771400951E+02   -0.86016E-01   -0.10121E-01    80   0.305E-01    0.172E-02
DAV:   2    -0.139772079375E+02   -0.67842E-04   -0.56120E-04   160   0.542E-02
   53 T=  1042. E= -.13707833E+02 F= -.13977208E+02 E0= -.13977208E+02  EK= 0.26938E+00 SP= 0.00E+00 SK= 0.00E+00
       N       E                     dE             d eps       ncg     rms          rms(c)
DAV:   1    -0.140457374012E+02   -0.68597E-01   -0.14948E-01   120   0.395E-01    0.414E-02
DAV:   2    -0.140458164706E+02   -0.79069E-04   -0.38381E-04   120   0.474E-02
   54 T=  1298. E= -.13710330E+02 F= -.14045816E+02 E0= -.14045816E+02  EK= 0.33549E+00 SP= 0.00E+00 SK= 0.00E+00
       N       E                     dE             d eps       ncg     rms          rms(c)
DAV:   1    -0.140589686647E+02   -0.13231E-01   -0.18310E-01   120   0.456E-01    0.210E-02
DAV:   2    -0.140590540674E+02   -0.85403E-04   -0.42446E-04   120   0.501E-02
   55 T=  1342. E= -.13712243E+02 F= -.14059054E+02 E0= -.14059054E+02  EK= 0.34681E+00 SP= 0.00E+00 SK= 0.00E+00
       N       E                     dE             d eps       ncg     rms          rms(c)
DAV:   1    -0.139944534923E+02    0.64515E-01   -0.17782E-01   120   0.466E-01    0.212E-02
DAV:   2    -0.139944926543E+02   -0.39162E-04   -0.24224E-04   120   0.391E-02
   56 T=  1096. E= -.13711125E+02 F= -.13994493E+02 E0= -.13994493E+02  EK= 0.28337E+00 SP= 0.00E+00 SK= 0.00E+00
       N       E                     dE             d eps       ncg     rms          rms(c)
DAV:   1    -0.138797641803E+02    0.11469E+00   -0.12408E-01   120   0.429E-01    0.464E-02
DAV:   2    -0.138798119753E+02   -0.47795E-04   -0.40559E-04   120   0.457E-02
   57 T=   674. E= -.13705471E+02 F= -.13879812E+02 E0= -.13879812E+02  EK= 0.17434E+00 SP= 0.00E+00 SK= 0.00E+00
       N       E                     dE             d eps       ncg     rms          rms(c)
DAV:   1    -0.138038144824E+02    0.75950E-01   -0.58139E-02   120   0.363E-01    0.893E-02
DAV:   2    -0.138038600906E+02   -0.45608E-04   -0.54425E-04    80   0.494E-02
   58 T=   402. E= -.13699869E+02 F= -.13803860E+02 E0= -.13803860E+02  EK= 0.10399E+00 SP= 0.00E+00 SK= 0.00E+00
       N       E                     dE             d eps       ncg     rms          rms(c)
DAV:   1    -0.138470681578E+02   -0.43254E-01   -0.23525E-02   120   0.263E-01    0.679E-02
DAV:   2    -0.138470964529E+02   -0.28295E-04   -0.25988E-04   120   0.331E-02
   59 T=   563. E= -.13701452E+02 F= -.13847096E+02 E0= -.13847096E+02  EK= 0.14564E+00 SP= 0.00E+00 SK= 0.00E+00
       N       E                     dE             d eps       ncg     rms          rms(c)
DAV:   1    -0.139878357830E+02   -0.14077E+00   -0.54975E-02   120   0.334E-01    0.340E-02
DAV:   2    -0.139879006529E+02   -0.64870E-04   -0.29556E-04   120   0.413E-02
   60 T=  1083. E= -.13707998E+02 F= -.13987901E+02 E0= -.13987901E+02  EK= 0.27990E+00 SP= 0.00E+00 SK= 0.00E+00
       N       E                     dE             d eps       ncg     rms          rms(c)
DAV:   1    -0.141286756777E+02   -0.14084E+00   -0.11795E-01   120   0.481E-01    0.596E-02
DAV:   2    -0.141287722395E+02   -0.96562E-04   -0.64500E-04   120   0.625E-02
   61 T=  1611. E= -.13712356E+02 F= -.14128772E+02 E0= -.14128772E+02  EK= 0.41642E+00 SP= 0.00E+00 SK= 0.00E+00
       N       E                     dE             d eps       ncg     rms          rms(c)
DAV:   1    -0.141965834027E+02   -0.67908E-01   -0.15710E-01   120   0.549E-01    0.780E-02
DAV:   2    -0.141966647782E+02   -0.81375E-04   -0.74907E-04   120   0.662E-02
   62 T=  1872. E= -.13712662E+02 F= -.14196665E+02 E0= -.14196665E+02  EK= 0.48400E+00 SP= 0.00E+00 SK= 0.00E+00
       N       E                     dE             d eps       ncg     rms          rms(c)
DAV:   1    -0.141805044724E+02    0.16079E-01   -0.15811E-01   120   0.568E-01    0.835E-02
DAV:   2    -0.141805168827E+02   -0.12410E-04   -0.68574E-04   120   0.618E-02
   63 T=  1817. E= -.13710780E+02 F= -.14180517E+02 E0= -.14180517E+02  EK= 0.46974E+00 SP= 0.00E+00 SK= 0.00E+00
       N       E                     dE             d eps       ncg     rms          rms(c)
DAV:   1    -0.141071208261E+02    0.73384E-01   -0.13148E-01    80   0.513E-01    0.242E-02
DAV:   2    -0.141073102622E+02   -0.18944E-03   -0.18019E-03   120   0.947E-02    0.218E-02
DAV:   3    -0.141073208449E+02   -0.10583E-04   -0.79318E-06   120   0.523E-03
   64 T=  1543. E= -.13708353E+02 F= -.14107321E+02 E0= -.14107321E+02  EK= 0.39897E+00 SP= 0.00E+00 SK= 0.00E+00
       N       E                     dE             d eps       ncg     rms          rms(c)
DAV:   1    -0.140128788872E+02    0.94431E-01   -0.93786E-02   120   0.422E-01    0.950E-02
DAV:   2    -0.140129289799E+02   -0.50093E-04   -0.49335E-04   120   0.514E-02
   65 T=  1187. E= -.13706129E+02 F= -.14012929E+02 E0= -.14012929E+02  EK= 0.30680E+00 SP= 0.00E+00 SK= 0.00E+00
       N       E                     dE             d eps       ncg     rms          rms(c)
DAV:   1    -0.139279441236E+02    0.84935E-01   -0.55499E-02   120   0.316E-01    0.433E-02
DAV:   2    -0.139279935630E+02   -0.49439E-04   -0.16590E-04   120   0.330E-02
   66 T=   864. E= -.13704714E+02 F= -.13927994E+02 E0= -.13927994E+02  EK= 0.22328E+00 SP= 0.00E+00 SK= 0.00E+00
       N       E                     dE             d eps       ncg     rms          rms(c)
DAV:   1    -0.138731646970E+02    0.54779E-01   -0.32114E-02   160   0.229E-01    0.235E-02
DAV:   2    -0.138732228736E+02   -0.58177E-04   -0.73662E-05   120   0.197E-02
   67 T=   655. E= -.13703977E+02 F= -.13873223E+02 E0= -.13873223E+02  EK= 0.16925E+00 SP= 0.00E+00 SK= 0.00E+00
       N       E                     dE             d eps       ncg     rms          rms(c)
DAV:   1    -0.138594474341E+02    0.13717E-01   -0.22970E-02   120   0.170E-01    0.192E-02
DAV:   2    -0.138595252915E+02   -0.77857E-04   -0.39095E-05   120   0.141E-02
   68 T=   602. E= -.13703882E+02 F= -.13859525E+02 E0= -.13859525E+02  EK= 0.15564E+00 SP= 0.00E+00 SK= 0.00E+00
       N       E                     dE             d eps       ncg     rms          rms(c)
DAV:   1    -0.138879931806E+02   -0.28546E-01   -0.30522E-02   120   0.183E-01    0.184E-02
DAV:   2    -0.138880446498E+02   -0.51469E-04   -0.78831E-05   120   0.217E-02
   69 T=   710. E= -.13704549E+02 F= -.13888045E+02 E0= -.13888045E+02  EK= 0.18350E+00 SP= 0.00E+00 SK= 0.00E+00
       N       E                     dE             d eps       ncg     rms          rms(c)
DAV:   1    -0.139495377108E+02   -0.61545E-01   -0.55151E-02   120   0.255E-01    0.145E-02
DAV:   2    -0.139496416810E+02   -0.10397E-03   -0.14408E-04   120   0.303E-02    0.995E-03
DAV:   3    -0.139497505075E+02   -0.10883E-03   -0.10730E-05   120   0.415E-03    0.253E-03
DAV:   4    -0.139497879827E+02   -0.37475E-04   -0.24495E-06   160   0.181E-03
   70 T=   944. E= -.13705848E+02 F= -.13949788E+02 E0= -.13949788E+02  EK= 0.24394E+00 SP= 0.00E+00 SK= 0.00E+00
       N       E                     dE             d eps       ncg     rms          rms(c)
DAV:   1    -0.140255883927E+02   -0.75838E-01   -0.94266E-02   120   0.349E-01    0.226E-02
DAV:   2    -0.140256488232E+02   -0.60430E-04   -0.22993E-04   160   0.377E-02
   71 T=  1230. E= -.13707637E+02 F= -.14025649E+02 E0= -.14025649E+02  EK= 0.31801E+00 SP= 0.00E+00 SK= 0.00E+00
       N       E                     dE             d eps       ncg     rms          rms(c)
DAV:   1    -0.140869772005E+02   -0.61389E-01   -0.14060E-01   120   0.439E-01    0.330E-02
DAV:   2    -0.140870791122E+02   -0.10191E-03   -0.37006E-04   160   0.452E-02    0.199E-02
DAV:   3    -0.140871622088E+02   -0.83097E-04   -0.83651E-06   160   0.530E-03
   72 T=  1459. E= -.13709947E+02 F= -.14087162E+02 E0= -.14087162E+02  EK= 0.37722E+00 SP= 0.00E+00 SK= 0.00E+00
       N       E                     dE             d eps       ncg     rms          rms(c)
DAV:   1    -0.141005165414E+02   -0.13437E-01   -0.18033E-01   160   0.504E-01    0.229E-02
DAV:   2    -0.141005476911E+02   -0.31150E-04   -0.19593E-04    80   0.368E-02
   73 T=  1503. E= -.13712039E+02 F= -.14100548E+02 E0= -.14100548E+02  EK= 0.38851E+00 SP= 0.00E+00 SK= 0.00E+00
       N       E                     dE             d eps       ncg     rms          rms(c)
DAV:   1    -0.140403927371E+02    0.60124E-01   -0.19111E-01   160   0.524E-01    0.334E-02
DAV:   2    -0.140404707856E+02   -0.78049E-04   -0.16224E-04    80   0.349E-02
   74 T=  1271. E= -.13711938E+02 F= -.14040471E+02 E0= -.14040471E+02  EK= 0.32853E+00 SP= 0.00E+00 SK= 0.00E+00
       N       E                     dE             d eps       ncg     rms          rms(c)
DAV:   1    -0.139157068485E+02    0.12469E+00   -0.15467E-01   160   0.471E-01    0.189E-02
DAV:   2    -0.139157638079E+02   -0.56959E-04   -0.77988E-05   160   0.244E-02
   75 T=   803. E= -.13708300E+02 F= -.13915764E+02 E0= -.13915764E+02  EK= 0.20746E+00 SP= 0.00E+00 SK= 0.00E+00
       N       E                     dE             d eps       ncg     rms          rms(c)
DAV:   1    -0.137887955104E+02    0.12691E+00   -0.85069E-02   160   0.375E-01    0.533E-02
DAV:   2    -0.137888012142E+02   -0.57039E-05   -0.24353E-04    80   0.319E-02
   76 T=   334. E= -.13702492E+02 F= -.13788801E+02 E0= -.13788801E+02  EK= 0.86309E-01 SP= 0.00E+00 SK= 0.00E+00
       N       E                     dE             d eps       ncg     rms          rms(c)
DAV:   1    -0.137490866419E+02    0.39709E-01   -0.31269E-02   120   0.288E-01    0.800E-02
DAV:   2    -0.137490982603E+02   -0.11618E-04   -0.34034E-04   160   0.342E-02
   77 T=   190. E= -.13699920E+02 F= -.13749098E+02 E0= -.13749098E+02  EK= 0.49178E-01 SP= 0.00E+00 SK= 0.00E+00
       N       E                     dE             d eps       ncg     rms          rms(c)
DAV:   1    -0.138325509281E+02   -0.83464E-01   -0.28359E-02   160   0.289E-01    0.401E-02
DAV:   2    -0.138326078728E+02   -0.56945E-04   -0.13104E-04    80   0.258E-02
   78 T=   498. E= -.13703877E+02 F= -.13832608E+02 E0= -.13832608E+02  EK= 0.12873E+00 SP= 0.00E+00 SK= 0.00E+00
       N       E                     dE             d eps       ncg     rms          rms(c)
DAV:   1    -0.139808459723E+02   -0.14830E+00   -0.77657E-02   120   0.448E-01    0.383E-02
DAV:   2    -0.139808832791E+02   -0.37307E-04   -0.27228E-04   160   0.440E-02
   79 T=  1049. E= -.13709809E+02 F= -.13980883E+02 E0= -.13980883E+02  EK= 0.27107E+00 SP= 0.00E+00 SK= 0.00E+00
       N       E                     dE             d eps       ncg     rms          rms(c)
DAV:   1    -0.141034387421E+02   -0.12259E+00   -0.13371E-01   160   0.582E-01    0.734E-02
DAV:   2    -0.141034902987E+02   -0.51557E-04   -0.44737E-04    80   0.492E-02
   80 T=  1512. E= -.13712565E+02 F= -.14103490E+02 E0= -.14103490E+02  EK= 0.39093E+00 SP= 0.00E+00 SK= 0.00E+00
       N       E                     dE             d eps       ncg     rms          rms(c)
DAV:   1    -0.141510595535E+02   -0.47621E-01   -0.15785E-01   160   0.633E-01    0.777E-02
DAV:   2    -0.141511193260E+02   -0.59773E-04   -0.62590E-04    80   0.562E-02
   81 T=  1698. E= -.13712036E+02 F= -.14151119E+02 E0= -.14151119E+02  EK= 0.43908E+00 SP= 0.00E+00 SK= 0.00E+00
       N       E                     dE             d eps       ncg     rms          rms(c)
DAV:   1    -0.141255078169E+02    0.25552E-01   -0.15109E-01   160   0.593E-01    0.180E-02
DAV:   2    -0.141255504248E+02   -0.42608E-04   -0.15337E-04    80   0.340E-02
   82 T=  1607. E= -.13710096E+02 F= -.14125550E+02 E0= -.14125550E+02  EK= 0.41545E+00 SP= 0.00E+00 SK= 0.00E+00
       N       E                     dE             d eps       ncg     rms          rms(c)
DAV:   1    -0.140546258855E+02    0.70882E-01   -0.12938E-01   120   0.546E-01    0.729E-02
DAV:   2    -0.140547452227E+02   -0.11934E-03   -0.61021E-04   160   0.596E-02    0.446E-02
DAV:   3    -0.140548915072E+02   -0.14628E-03   -0.39336E-05   120   0.134E-02    0.109E-02
DAV:   4    -0.140549590019E+02   -0.67495E-04   -0.66160E-06   160   0.482E-03
   83 T=  1343. E= -.13707767E+02 F= -.14054959E+02 E0= -.14054959E+02  EK= 0.34719E+00 SP= 0.00E+00 SK= 0.00E+00
       N       E                     dE             d eps       ncg     rms          rms(c)
DAV:   1    -0.139731504875E+02    0.81741E-01   -0.93877E-02   120   0.450E-01    0.253E-02
DAV:   2    -0.139732112972E+02   -0.60810E-04   -0.35112E-04   120   0.425E-02
   84 T=  1034. E= -.13705917E+02 F= -.13973211E+02 E0= -.13973211E+02  EK= 0.26729E+00 SP= 0.00E+00 SK= 0.00E+00
       N       E                     dE             d eps       ncg     rms          rms(c)
DAV:   1    -0.139080715760E+02    0.65079E-01   -0.61724E-02   160   0.352E-01    0.302E-02
DAV:   2    -0.139081593628E+02   -0.87787E-04   -0.12650E-04    80   0.272E-02
   85 T=   787. E= -.13704623E+02 F= -.13908159E+02 E0= -.13908159E+02  EK= 0.20354E+00 SP= 0.00E+00 SK= 0.00E+00
       N       E                     dE             d eps       ncg     rms          rms(c)
DAV:   1    -0.138783739145E+02    0.29698E-01   -0.40629E-02   120   0.264E-01    0.250E-02
DAV:   2    -0.138784619194E+02   -0.88005E-04   -0.10241E-04   160   0.249E-02
   86 T=   674. E= -.13704123E+02 F= -.13878462E+02 E0= -.13878462E+02  EK= 0.17434E+00 SP= 0.00E+00 SK= 0.00E+00
       N       E                     dE             d eps       ncg     rms          rms(c)
DAV:   1    -0.138921427827E+02   -0.13769E-01   -0.36651E-02   120   0.212E-01    0.896E-03
DAV:   2    -0.138922097345E+02   -0.66952E-04   -0.38719E-05   160   0.153E-02
   87 T=   727. E= -.13704330E+02 F= -.13892210E+02 E0= -.13892210E+02  EK= 0.18788E+00 SP= 0.00E+00 SK= 0.00E+00
       N       E                     dE             d eps       ncg     rms          rms(c)
DAV:   1    -0.139469627506E+02   -0.54820E-01   -0.50792E-02   120   0.219E-01    0.150E-02
DAV:   2    -0.139470530472E+02   -0.90297E-04   -0.69846E-05   120   0.182E-02
   88 T=   936. E= -.13705099E+02 F= -.13947053E+02 E0= -.13947053E+02  EK= 0.24195E+00 SP= 0.00E+00 SK= 0.00E+00
       N       E                     dE             d eps       ncg     rms          rms(c)
DAV:   1    -0.140297233163E+02   -0.82761E-01   -0.83435E-02   120   0.277E-01    0.190E-02
DAV:   2    -0.140298279441E+02   -0.10463E-03   -0.15732E-04   120   0.297E-02    0.124E-02
DAV:   3    -0.140299588622E+02   -0.13092E-03   -0.11437E-05   120   0.488E-03    0.315E-03
DAV:   4    -0.140300267295E+02   -0.67867E-04   -0.54062E-06   120   0.263E-03
   89 T=  1250. E= -.13706867E+02 F= -.14030027E+02 E0= -.14030027E+02  EK= 0.32316E+00 SP= 0.00E+00 SK= 0.00E+00
       N       E                     dE             d eps       ncg     rms          rms(c)
DAV:   1    -0.141150168155E+02   -0.85058E-01   -0.13214E-01   120   0.359E-01    0.172E-02
DAV:   2    -0.141151363090E+02   -0.11949E-03   -0.27434E-04   120   0.401E-02    0.651E-03
DAV:   3    -0.141152259876E+02   -0.89679E-04   -0.42995E-06   120   0.313E-03
   90 T=  1571. E= -.13709177E+02 F= -.14115226E+02 E0= -.14115226E+02  EK= 0.40605E+00 SP= 0.00E+00 SK= 0.00E+00
       N       E                     dE             d eps       ncg     rms          rms(c)
DAV:   1    -0.141667014335E+02   -0.51565E-01   -0.18556E-01   120   0.438E-01    0.326E-02
DAV:   2    -0.141667815384E+02   -0.80105E-04   -0.45727E-04   120   0.511E-02
   91 T=  1759. E= -.13712046E+02 F= -.14166782E+02 E0= -.14166782E+02  EK= 0.45474E+00 SP= 0.00E+00 SK= 0.00E+00
       N       E                     dE             d eps       ncg     rms          rms(c)
DAV:   1    -0.141456175500E+02    0.21084E-01   -0.22124E-01   120   0.493E-01    0.535E-02
DAV:   2    -0.141456692577E+02   -0.51708E-04   -0.49209E-04    80   0.530E-02
   92 T=  1671. E= -.13713676E+02 F= -.14145669E+02 E0= -.14145669E+02  EK= 0.43199E+00 SP= 0.00E+00 SK= 0.00E+00
       N       E                     dE             d eps       ncg     rms          rms(c)
DAV:   1    -0.140352018116E+02    0.11042E+00   -0.21289E-01   120   0.497E-01    0.504E-02
DAV:   2    -0.140352274343E+02   -0.25623E-04   -0.46585E-04   120   0.504E-02
   93 T=  1252. E= -.13711550E+02 F= -.14035227E+02 E0= -.14035227E+02  EK= 0.32368E+00 SP= 0.00E+00 SK= 0.00E+00
       N       E                     dE             d eps       ncg     rms          rms(c)
DAV:   1    -0.138767426765E+02    0.15846E+00   -0.14411E-01   120   0.414E-01    0.408E-02
DAV:   2    -0.138767692944E+02   -0.26618E-04   -0.21111E-04   120   0.348E-02
   94 T=   664. E= -.13705012E+02 F= -.13876769E+02 E0= -.13876769E+02  EK= 0.17176E+00 SP= 0.00E+00 SK= 0.00E+00
       N       E                     dE             d eps       ncg     rms          rms(c)
DAV:   1    -0.137713566486E+02    0.10539E+00   -0.72025E-02   120   0.433E-01    0.116E-01
DAV:   2    -0.137712089636E+02    0.14768E-03   -0.84050E-04    80   0.490E-02    0.477E-02
DAV:   3    -0.137712117574E+02   -0.27938E-05   -0.17415E-05   120   0.953E-03
   95 T=   276. E= -.13699800E+02 F= -.13771212E+02 E0= -.13771212E+02  EK= 0.71412E-01 SP= 0.00E+00 SK= 0.00E+00
       N       E                     dE             d eps       ncg     rms          rms(c)
DAV:   1    -0.137948800885E+02   -0.23671E-01   -0.23344E-02   120   0.276E-01    0.535E-02
DAV:   2    -0.137949133793E+02   -0.33291E-04   -0.28719E-04   120   0.377E-02
   96 T=   359. E= -.13702078E+02 F= -.13794913E+02 E0= -.13794913E+02  EK= 0.92835E-01 SP= 0.00E+00 SK= 0.00E+00
       N       E                     dE             d eps       ncg     rms          rms(c)
DAV:   1    -0.139139589430E+02   -0.11908E+00   -0.56620E-02   120   0.383E-01    0.285E-02
DAV:   2    -0.139140338910E+02   -0.74948E-04   -0.10136E-04   120   0.279E-02
   97 T=   795. E= -.13708473E+02 F= -.13914034E+02 E0= -.13914034E+02  EK= 0.20556E+00 SP= 0.00E+00 SK= 0.00E+00
       N       E                     dE             d eps       ncg     rms          rms(c)
DAV:   1    -0.140296219796E+02   -0.11566E+00   -0.11733E-01   120   0.501E-01    0.597E-02
DAV:   2    -0.140296687115E+02   -0.46732E-04   -0.49358E-04   120   0.571E-02
   98 T=  1227. E= -.13712357E+02 F= -.14029669E+02 E0= -.14029669E+02  EK= 0.31731E+00 SP= 0.00E+00 SK= 0.00E+00
       N       E                     dE             d eps       ncg     rms          rms(c)
DAV:   1    -0.140765532914E+02   -0.46931E-01   -0.15102E-01   120   0.534E-01    0.677E-02
DAV:   2    -0.140766057459E+02   -0.52454E-04   -0.68703E-04   160   0.667E-02
   99 T=  1410. E= -.13712154E+02 F= -.14076606E+02 E0= -.14076606E+02  EK= 0.36445E+00 SP= 0.00E+00 SK= 0.00E+00
       N       E                     dE             d eps       ncg     rms          rms(c)
DAV:   1    -0.140506481579E+02    0.25905E-01   -0.14731E-01   120   0.496E-01    0.215E-02
DAV:   2    -0.140507506993E+02   -0.10254E-03   -0.31790E-04   120   0.458E-02    0.134E-02
DAV:   3    -0.140508185215E+02   -0.67822E-04   -0.52135E-06   120   0.311E-03
  100 T=  1319. E= -.13709917E+02 F= -.14050819E+02 E0= -.14050819E+02  EK= 0.34090E+00 SP= 0.00E+00 SK= 0.00E+00
       N       E                     dE             d eps       ncg     rms          rms(c)
DAV:   1    -0.139814223090E+02    0.69328E-01   -0.12262E-01   120   0.437E-01    0.494E-02
DAV:   2    -0.139814558334E+02   -0.33524E-04   -0.29232E-04   120   0.420E-02
  101 T=  1060. E= -.13707476E+02 F= -.13981456E+02 E0= -.13981456E+02  EK= 0.27398E+00 SP= 0.00E+00 SK= 0.00E+00
       N       E                     dE             d eps       ncg     rms          rms(c)
DAV:   1    -0.139031160887E+02    0.78306E-01   -0.84737E-02   120   0.353E-01    0.274E-02
DAV:   2    -0.139032112137E+02   -0.95125E-04   -0.26156E-04    80   0.387E-02
  102 T=   766. E= -.13705290E+02 F= -.13903211E+02 E0= -.13903211E+02  EK= 0.19792E+00 SP= 0.00E+00 SK= 0.00E+00
       N       E                     dE             d eps       ncg     rms          rms(c)
DAV:   1    -0.138451593557E+02    0.57957E-01   -0.50535E-02   120   0.268E-01    0.267E-02
DAV:   2    -0.138452650090E+02   -0.10565E-03   -0.24510E-04   120   0.360E-02    0.157E-02
DAV:   3    -0.138453707818E+02   -0.10577E-03   -0.13852E-05   120   0.661E-03    0.621E-03
DAV:   4    -0.138454640349E+02   -0.93253E-04   -0.97394E-06   120   0.436E-03
  103 T=   546. E= -.13704234E+02 F= -.13845464E+02 E0= -.13845464E+02  EK= 0.14123E+00 SP= 0.00E+00 SK= 0.00E+00
       N       E                     dE             d eps       ncg     rms          rms(c)
DAV:   1    -0.138259397489E+02    0.19431E-01   -0.27697E-02   120   0.185E-01    0.145E-02
DAV:   2    -0.138261132277E+02   -0.17348E-03   -0.60141E-05    80   0.175E-02    0.776E-03
DAV:   3    -0.138263019011E+02   -0.18867E-03   -0.17007E-05   120   0.485E-03    0.388E-03
DAV:   4    -0.138264829528E+02   -0.18105E-03   -0.32305E-05   120   0.543E-03    0.216E-03
DAV:   5    -0.138265189914E+02   -0.36039E-04   -0.60740E-06   120   0.256E-03
  104 T=   475. E= -.13703795E+02 F= -.13826519E+02 E0= -.13826519E+02  EK= 0.12272E+00 SP= 0.00E+00 SK= 0.00E+00
       N       E                     dE             d eps       ncg     rms          rms(c)
DAV:   1    -0.138544456133E+02   -0.27963E-01   -0.21988E-02   120   0.149E-01    0.178E-02
DAV:   2    -0.138544656656E+02   -0.20052E-04   -0.58620E-05   120   0.173E-02
  105 T=   582. E= -.13703943E+02 F= -.13854466E+02 E0= -.13854466E+02  EK= 0.15052E+00 SP= 0.00E+00 SK= 0.00E+00
       N       E                     dE             d eps       ncg     rms          rms(c)
DAV:   1    -0.139265363480E+02   -0.72091E-01   -0.36195E-02   120   0.201E-01    0.135E-02
DAV:   2    -0.139265929546E+02   -0.56607E-04   -0.12264E-04   120   0.268E-02
  106 T=   858. E= -.13704756E+02 F= -.13926593E+02 E0= -.13926593E+02  EK= 0.22184E+00 SP= 0.00E+00 SK= 0.00E+00
       N       E                     dE             d eps       ncg     rms          rms(c)
DAV:   1    -0.140288185510E+02   -0.10228E+00   -0.69286E-02   120   0.295E-01    0.125E-02
DAV:   2    -0.140288781016E+02   -0.59551E-04   -0.20893E-04   120   0.355E-02
  107 T=  1247. E= -.13706431E+02 F= -.14028878E+02 E0= -.14028878E+02  EK= 0.32245E+00 SP= 0.00E+00 SK= 0.00E+00
       N       E                     dE             d eps       ncg     rms          rms(c)
DAV:   1    -0.141351778134E+02   -0.10636E+00   -0.11707E-01   120   0.399E-01    0.268E-02
DAV:   2    -0.141352144322E+02   -0.36619E-04   -0.27244E-04   120   0.419E-02
  108 T=  1649. E= -.13708850E+02 F= -.14135214E+02 E0= -.14135214E+02  EK= 0.42636E+00 SP= 0.00E+00 SK= 0.00E+00
       N       E                     dE             d eps       ncg     rms          rms(c)
DAV:   1    -0.142095052748E+02   -0.74327E-01   -0.16752E-01    80   0.497E-01    0.274E-02
DAV:   2    -0.142096255314E+02   -0.12026E-03   -0.10041E-03    80   0.773E-02    0.222E-02
DAV:   3    -0.142096469400E+02   -0.21409E-04   -0.90418E-06   120   0.638E-03
  109 T=  1927. E= -.13711357E+02 F= -.14209647E+02 E0= -.14209647E+02  EK= 0.49829E+00 SP= 0.00E+00 SK= 0.00E+00
       N       E                     dE             d eps       ncg     rms          rms(c)
DAV:   1    -0.142162165806E+02   -0.65910E-02   -0.20658E-01   120   0.577E-01    0.388E-02
DAV:   2    -0.142162842241E+02   -0.67643E-04   -0.65735E-04   120   0.619E-02
  110 T=  1948. E= -.13712665E+02 F= -.14216284E+02 E0= -.14216284E+02  EK= 0.50362E+00 SP= 0.00E+00 SK= 0.00E+00
       N       E                     dE             d eps       ncg     rms          rms(c)
DAV:   1    -0.141398705185E+02    0.76346E-01   -0.20985E-01   120   0.628E-01    0.603E-02
DAV:   2    -0.141399340169E+02   -0.63498E-04   -0.57205E-04   160   0.592E-02
  111 T=  1659. E= -.13710936E+02 F= -.14139934E+02 E0= -.14139934E+02  EK= 0.42900E+00 SP= 0.00E+00 SK= 0.00E+00
       N       E                     dE             d eps       ncg     rms          rms(c)
DAV:   1    -0.140116367777E+02    0.12823E+00   -0.16073E-01   120   0.677E-01    0.104E-01
DAV:   2    -0.140115460063E+02    0.90771E-04   -0.11357E-03    80   0.677E-02    0.401E-02
DAV:   3    -0.140115614443E+02   -0.15438E-04   -0.21978E-05   120   0.101E-02
  112 T=  1182. E= -.13706097E+02 F= -.14011561E+02 E0= -.14011561E+02  EK= 0.30546E+00 SP= 0.00E+00 SK= 0.00E+00
       N       E                     dE             d eps       ncg     rms          rms(c)
DAV:   1    -0.139059371021E+02    0.10561E+00   -0.87159E-02   120   0.535E-01    0.110E-01
DAV:   2    -0.139060055453E+02   -0.68443E-04   -0.80503E-04    80   0.606E-02
  113 T=   790. E= -.13701818E+02 F= -.13906006E+02 E0= -.13906006E+02  EK= 0.20419E+00 SP= 0.00E+00 SK= 0.00E+00
       N       E                     dE             d eps       ncg     rms          rms(c)
DAV:   1    -0.138852774882E+02    0.20660E-01   -0.40689E-02   120   0.363E-01    0.105E-01
DAV:   2    -0.138854342402E+02   -0.15675E-03   -0.29091E-04   120   0.403E-02    0.615E-02
DAV:   3    -0.138856104463E+02   -0.17621E-03   -0.47046E-05   120   0.141E-02    0.136E-02
DAV:   4    -0.138856473947E+02   -0.36948E-04   -0.44669E-06   120   0.425E-03
  114 T=   708. E= -.13702700E+02 F= -.13885647E+02 E0= -.13885647E+02  EK= 0.18295E+00 SP= 0.00E+00 SK= 0.00E+00
       N       E                     dE             d eps       ncg     rms          rms(c)
DAV:   1    -0.139406152186E+02   -0.55005E-01   -0.54947E-02   120   0.363E-01    0.717E-02
DAV:   2    -0.139407752209E+02   -0.16000E-03   -0.22940E-04   120   0.363E-02    0.412E-02
DAV:   3    -0.139409183712E+02   -0.14315E-03   -0.25521E-05   160   0.110E-02    0.542E-03
DAV:   4    -0.139409389007E+02   -0.20530E-04   -0.13411E-06   120   0.213E-03
  115 T=   906. E= -.13706775E+02 F= -.13940939E+02 E0= -.13940939E+02  EK= 0.23416E+00 SP= 0.00E+00 SK= 0.00E+00
       N       E                     dE             d eps       ncg     rms          rms(c)
DAV:   1    -0.140108244271E+02   -0.69906E-01   -0.96103E-02   120   0.454E-01    0.427E-02
DAV:   2    -0.140108780258E+02   -0.53599E-04   -0.41419E-04   120   0.507E-02
  116 T=  1164. E= -.13709901E+02 F= -.14010878E+02 E0= -.14010878E+02  EK= 0.30098E+00 SP= 0.00E+00 SK= 0.00E+00
       N       E                     dE             d eps       ncg     rms          rms(c)
DAV:   1    -0.140430904161E+02   -0.32266E-01   -0.12385E-01   120   0.508E-01    0.614E-02
DAV:   2    -0.140431204679E+02   -0.30052E-04   -0.42804E-04   160   0.504E-02
  117 T=  1286. E= -.13710538E+02 F= -.14043120E+02 E0= -.14043120E+02  EK= 0.33258E+00 SP= 0.00E+00 SK= 0.00E+00
       N       E                     dE             d eps       ncg     rms          rms(c)
DAV:   1    -0.140224951330E+02    0.20595E-01   -0.12567E-01   120   0.507E-01    0.433E-02
DAV:   2    -0.140225209541E+02   -0.25821E-04   -0.31584E-04   160   0.455E-02
  118 T=  1211. E= -.13709418E+02 F= -.14022521E+02 E0= -.14022521E+02  EK= 0.31310E+00 SP= 0.00E+00 SK= 0.00E+00
       N       E                     dE             d eps       ncg     rms          rms(c)
DAV:   1    -0.139625788211E+02    0.59916E-01   -0.10723E-01    80   0.465E-01    0.249E-02
DAV:   2    -0.139626507725E+02   -0.71951E-04   -0.51511E-04   160   0.584E-02
  119 T=   987. E= -.13707604E+02 F= -.13962651E+02 E0= -.13962651E+02  EK= 0.25505E+00 SP= 0.00E+00 SK= 0.00E+00
       N       E                     dE             d eps       ncg     rms          rms(c)
DAV:   1    -0.138885747082E+02    0.74004E-01   -0.80683E-02    80   0.405E-01    0.336E-02
DAV:   2    -0.138886461228E+02   -0.71415E-04   -0.53574E-04   160   0.543E-02
  120 T=   707. E= -.13705846E+02 F= -.13888646E+02 E0= -.13888646E+02  EK= 0.18280E+00 SP= 0.00E+00 SK= 0.00E+00
       N       E                     dE             d eps       ncg     rms          rms(c)
DAV:   1    -0.138256758406E+02    0.62899E-01   -0.53142E-02   120   0.327E-01    0.261E-02
DAV:   2    -0.138256994080E+02   -0.23567E-04   -0.12764E-04    80   0.289E-02
  121 T=   469. E= -.13704553E+02 F= -.13825699E+02 E0= -.13825699E+02  EK= 0.12115E+00 SP= 0.00E+00 SK= 0.00E+00
       N       E                     dE             d eps       ncg     rms          rms(c)
DAV:   1    -0.137933073973E+02    0.32368E-01   -0.34669E-02   120   0.256E-01    0.209E-02
DAV:   2    -0.137933313571E+02   -0.23960E-04   -0.14967E-04   120   0.269E-02
  122 T=   346. E= -.13703771E+02 F= -.13793331E+02 E0= -.13793331E+02  EK= 0.89560E-01 SP= 0.00E+00 SK= 0.00E+00
       N       E                     dE             d eps       ncg     rms          rms(c)
DAV:   1    -0.138031455187E+02   -0.98381E-02   -0.25599E-02   120   0.185E-01    0.187E-02
DAV:   2    -0.138031744953E+02   -0.28977E-04   -0.48851E-05    80   0.172E-02
  123 T=   385. E= -.13703605E+02 F= -.13803174E+02 E0= -.13803174E+02  EK= 0.99569E-01 SP= 0.00E+00 SK= 0.00E+00
       N       E                     dE             d eps       ncg     rms          rms(c)
DAV:   1    -0.138576787606E+02   -0.54533E-01   -0.32880E-02   160   0.177E-01    0.992E-03
DAV:   2    -0.138576816440E+02   -0.28834E-05   -0.14314E-05    80   0.981E-03
  124 T=   594. E= -.13704148E+02 F= -.13857682E+02 E0= -.13857682E+02  EK= 0.15353E+00 SP= 0.00E+00 SK= 0.00E+00
       N       E                     dE             d eps       ncg     rms          rms(c)
DAV:   1    -0.139490734602E+02   -0.91395E-01   -0.57069E-02   120   0.237E-01    0.108E-02
DAV:   2    -0.139491005330E+02   -0.27073E-04   -0.71759E-05   120   0.209E-02
  125 T=   943. E= -.13705291E+02 F= -.13949101E+02 E0= -.13949101E+02  EK= 0.24381E+00 SP= 0.00E+00 SK= 0.00E+00
       N       E                     dE             d eps       ncg     rms          rms(c)
DAV:   1    -0.140590419502E+02   -0.10997E+00   -0.94668E-02   120   0.318E-01    0.208E-02
DAV:   2    -0.140590904970E+02   -0.48547E-04   -0.16861E-04   120   0.309E-02
  126 T=  1361. E= -.13707155E+02 F= -.14059090E+02 E0= -.14059090E+02  EK= 0.35194E+00 SP= 0.00E+00 SK= 0.00E+00
       N       E                     dE             d eps       ncg     rms          rms(c)
DAV:   1    -0.141585133089E+02   -0.99471E-01   -0.14146E-01   120   0.400E-01    0.328E-02
DAV:   2    -0.141585392005E+02   -0.25892E-04   -0.23133E-04   120   0.371E-02
  127 T=  1736. E= -.13709653E+02 F= -.14158539E+02 E0= -.14158539E+02  EK= 0.44889E+00 SP= 0.00E+00 SK= 0.00E+00
       N       E                     dE             d eps       ncg     rms          rms(c)
DAV:   1    -0.142113440042E+02   -0.52831E-01   -0.18478E-01   120   0.468E-01    0.412E-02
DAV:   2    -0.142113662554E+02   -0.22251E-04   -0.35959E-04    80   0.455E-02
  128 T=  1932. E= -.13711848E+02 F= -.14211366E+02 E0= -.14211366E+02  EK= 0.49952E+00 SP= 0.00E+00 SK= 0.00E+00
       N       E                     dE             d eps       ncg     rms          rms(c)
DAV:   1    -0.141886841774E+02    0.22660E-01   -0.20385E-01   120   0.507E-01    0.494E-02
DAV:   2    -0.141887295261E+02   -0.45349E-04   -0.44020E-04   120   0.489E-02
  129 T=  1844. E= -.13711994E+02 F= -.14188730E+02 E0= -.14188730E+02  EK= 0.47674E+00 SP= 0.00E+00 SK= 0.00E+00
       N       E                     dE             d eps       ncg     rms          rms(c)
DAV:   1    -0.140944274784E+02    0.94257E-01   -0.16859E-01    80   0.508E-01    0.792E-02
DAV:   2    -0.140944503504E+02   -0.22872E-04   -0.17097E-03    80   0.904E-02    0.280E-02
DAV:   3    -0.140944563488E+02   -0.59984E-05   -0.18731E-05   160   0.889E-03
  130 T=  1492. E= -.13708752E+02 F= -.14094456E+02 E0= -.14094456E+02  EK= 0.38570E+00 SP= 0.00E+00 SK= 0.00E+00
       N       E                     dE             d eps       ncg     rms          rms(c)
DAV:   1    -0.139838781092E+02    0.11057E+00   -0.11537E-01   120   0.466E-01    0.121E-01
DAV:   2    -0.139838422704E+02    0.35839E-04   -0.75893E-04   120   0.490E-02
  131 T=  1085. E= -.13703297E+02 F= -.13983842E+02 E0= -.13983842E+02  EK= 0.28055E+00 SP= 0.00E+00 SK= 0.00E+00
       N       E                     dE             d eps       ncg     rms          rms(c)
DAV:   1    -0.139362828983E+02    0.47595E-01   -0.57138E-02   120   0.353E-01    0.121E-01
DAV:   2    -0.139364191173E+02   -0.13622E-03   -0.33581E-04    80   0.400E-02    0.674E-02
DAV:   3    -0.139366534787E+02   -0.23436E-03   -0.56552E-05   120   0.162E-02    0.207E-02
DAV:   4    -0.139368256038E+02   -0.17213E-03   -0.18950E-05   120   0.741E-03    0.509E-03
DAV:   5    -0.139370217710E+02   -0.19617E-03   -0.33576E-05   120   0.625E-03    0.247E-03
DAV:   6    -0.139370565761E+02   -0.34805E-04   -0.43349E-06   120   0.231E-03
  132 T=   910. E= -.13701686E+02 F= -.13937057E+02 E0= -.13937057E+02  EK= 0.23537E+00 SP= 0.00E+00 SK= 0.00E+00
       N       E                     dE             d eps       ncg     rms          rms(c)
DAV:   1    -0.139793119970E+02   -0.42290E-01   -0.49358E-02   120   0.368E-01    0.751E-02
DAV:   2    -0.139795463697E+02   -0.23437E-03   -0.24826E-04   120   0.406E-02    0.432E-02
DAV:   3    -0.139798773065E+02   -0.33094E-03   -0.40771E-05   120   0.123E-02    0.747E-03
DAV:   4    -0.139800452560E+02   -0.16795E-03   -0.14143E-05   160   0.510E-03    0.443E-03
DAV:   5    -0.139801676873E+02   -0.12243E-03   -0.16695E-05   120   0.432E-03    0.139E-03
DAV:   6    -0.139801979302E+02   -0.30243E-04   -0.33675E-06   120   0.175E-03
  133 T=  1063. E= -.13705314E+02 F= -.13980198E+02 E0= -.13980198E+02  EK= 0.27488E+00 SP= 0.00E+00 SK= 0.00E+00
       N       E                     dE             d eps       ncg     rms          rms(c)
DAV:   1    -0.140605042713E+02   -0.80337E-01   -0.87707E-02   120   0.483E-01    0.327E-02
DAV:   2    -0.140605468651E+02   -0.42594E-04   -0.31237E-04    80   0.462E-02
  134 T=  1357. E= -.13709807E+02 F= -.14060547E+02 E0= -.14060547E+02  EK= 0.35074E+00 SP= 0.00E+00 SK= 0.00E+00
       N       E                     dE             d eps       ncg     rms          rms(c)
DAV:   1    -0.141068985855E+02   -0.46394E-01   -0.12671E-01   120   0.543E-01    0.509E-02
DAV:   2    -0.141069794833E+02   -0.80898E-04   -0.56493E-04    80   0.617E-02
  135 T=  1531. E= -.13711307E+02 F= -.14106979E+02 E0= -.14106979E+02  EK= 0.39567E+00 SP= 0.00E+00 SK= 0.00E+00
       N       E                     dE             d eps       ncg     rms          rms(c)
DAV:   1    -0.140883898953E+02    0.18509E-01   -0.13958E-01   160   0.531E-01    0.559E-02
DAV:   2    -0.140884423217E+02   -0.52426E-04   -0.22792E-04   120   0.373E-02
  136 T=  1463. E= -.13710310E+02 F= -.14088442E+02 E0= -.14088442E+02  EK= 0.37813E+00 SP= 0.00E+00 SK= 0.00E+00
       N       E                     dE             d eps       ncg     rms          rms(c)
DAV:   1    -0.140155342290E+02    0.72856E-01   -0.12385E-01    80   0.470E-01    0.317E-02
DAV:   2    -0.140155874221E+02   -0.53193E-04   -0.53555E-04   120   0.625E-02
  137 T=  1189. E= -.13708319E+02 F= -.14015587E+02 E0= -.14015587E+02  EK= 0.30727E+00 SP= 0.00E+00 SK= 0.00E+00
       N       E                     dE             d eps       ncg     rms          rms(c)
DAV:   1    -0.139180735588E+02    0.97461E-01   -0.94448E-02   120   0.387E-01    0.177E-02
DAV:   2    -0.139181291053E+02   -0.55546E-04   -0.21955E-04   120   0.380E-02
  138 T=   820. E= -.13706141E+02 F= -.13918129E+02 E0= -.13918129E+02  EK= 0.21199E+00 SP= 0.00E+00 SK= 0.00E+00
       N       E                     dE             d eps       ncg     rms          rms(c)
DAV:   1    -0.138275751834E+02    0.90498E-01   -0.62353E-02   120   0.311E-01    0.247E-02
DAV:   2    -0.138276619867E+02   -0.86803E-04   -0.21045E-04   120   0.361E-02
  139 T=   477. E= -.13704461E+02 F= -.13827662E+02 E0= -.13827662E+02  EK= 0.12320E+00 SP= 0.00E+00 SK= 0.00E+00
       N       E                     dE             d eps       ncg     rms          rms(c)
DAV:   1    -0.137688630741E+02    0.58712E-01   -0.34089E-02   120   0.221E-01    0.117E-02
DAV:   2    -0.137688910156E+02   -0.27942E-04   -0.10947E-04   120   0.261E-02
  140 T=   252. E= -.13703617E+02 F= -.13768891E+02 E0= -.13768891E+02  EK= 0.65274E-01 SP= 0.00E+00 SK= 0.00E+00
       N       E                     dE             d eps       ncg     rms          rms(c)
DAV:   1    -0.137560122621E+02    0.12851E-01   -0.19527E-02   120   0.147E-01    0.149E-02
DAV:   2    -0.137560902448E+02   -0.77983E-04   -0.77259E-05   120   0.190E-02
  141 T=   205. E= -.13703195E+02 F= -.13756090E+02 E0= -.13756090E+02  EK= 0.52895E-01 SP= 0.00E+00 SK= 0.00E+00
       N       E                     dE             d eps       ncg     rms          rms(c)
DAV:   1    -0.137934581116E+02   -0.37446E-01   -0.21377E-02   120   0.138E-01    0.808E-03
DAV:   2    -0.137935423508E+02   -0.84239E-04   -0.66443E-05   120   0.182E-02
  142 T=   348. E= -.13703694E+02 F= -.13793542E+02 E0= -.13793542E+02  EK= 0.89848E-01 SP= 0.00E+00 SK= 0.00E+00
       N       E                     dE             d eps       ncg     rms          rms(c)
DAV:   1    -0.138733251331E+02   -0.79867E-01   -0.43920E-02    80   0.217E-01    0.955E-03
DAV:   2    -0.138733634198E+02   -0.38287E-04   -0.23609E-04   120   0.372E-02
  143 T=   651. E= -.13705153E+02 F= -.13873363E+02 E0= -.13873363E+02  EK= 0.16821E+00 SP= 0.00E+00 SK= 0.00E+00
       N       E                     dE             d eps       ncg     rms          rms(c)
DAV:   1    -0.139745968190E+02   -0.10127E+00   -0.82854E-02   120   0.314E-01    0.235E-02
DAV:   2    -0.139747325795E+02   -0.13576E-03   -0.23076E-04   120   0.379E-02    0.151E-02
DAV:   3    -0.139748758997E+02   -0.14332E-03   -0.12580E-05   120   0.491E-03    0.541E-03
DAV:   4    -0.139749843672E+02   -0.10847E-03   -0.12020E-05   120   0.383E-03    0.174E-03
DAV:   5    -0.139750447925E+02   -0.60425E-04   -0.12040E-05   120   0.314E-03
  144 T=  1036. E= -.13707255E+02 F= -.13975045E+02 E0= -.13975045E+02  EK= 0.26779E+00 SP= 0.00E+00 SK= 0.00E+00
       N       E                     dE             d eps       ncg     rms          rms(c)
DAV:   1    -0.140670508512E+02   -0.92066E-01   -0.12881E-01   120   0.408E-01    0.161E-02
DAV:   2    -0.140671484569E+02   -0.97606E-04   -0.40804E-04   120   0.473E-02
  145 T=  1383. E= -.13709542E+02 F= -.14067148E+02 E0= -.14067148E+02  EK= 0.35761E+00 SP= 0.00E+00 SK= 0.00E+00
       N       E                     dE             d eps       ncg     rms          rms(c)
DAV:   1    -0.141142349963E+02   -0.47184E-01   -0.16414E-01   120   0.478E-01    0.266E-02
DAV:   2    -0.141143949841E+02   -0.15999E-03   -0.41174E-04   120   0.516E-02    0.185E-02
DAV:   3    -0.141145872008E+02   -0.19222E-03   -0.25053E-05   120   0.712E-03    0.389E-03
DAV:   4    -0.141146471222E+02   -0.59921E-04   -0.43583E-06   120   0.262E-03
  146 T=  1560. E= -.13711347E+02 F= -.14114647E+02 E0= -.14114647E+02  EK= 0.40330E+00 SP= 0.00E+00 SK= 0.00E+00
       N       E                     dE             d eps       ncg     rms          rms(c)
DAV:   1    -0.140953516207E+02    0.19236E-01   -0.16349E-01   120   0.495E-01    0.269E-02
DAV:   2    -0.140954886351E+02   -0.13701E-03   -0.29125E-04   120   0.420E-02    0.126E-02
DAV:   3    -0.140955808450E+02   -0.92210E-04   -0.65614E-06   120   0.396E-03
  147 T=  1489. E= -.13710513E+02 F= -.14095581E+02 E0= -.14095581E+02  EK= 0.38507E+00 SP= 0.00E+00 SK= 0.00E+00
       N       E                     dE             d eps       ncg     rms          rms(c)
DAV:   1    -0.140274181686E+02    0.68070E-01   -0.13162E-01   120   0.513E-01    0.569E-02
DAV:   2    -0.140275327188E+02   -0.11455E-03   -0.72102E-04    80   0.582E-02    0.171E-02
DAV:   3    -0.140276316153E+02   -0.98896E-04   -0.87719E-06   160   0.570E-03
  148 T=  1242. E= -.13706606E+02 F= -.14027632E+02 E0= -.14027632E+02  EK= 0.32103E+00 SP= 0.00E+00 SK= 0.00E+00
       N       E                     dE             d eps       ncg     rms          rms(c)
DAV:   1    -0.139717453479E+02    0.55787E-01   -0.81557E-02   120   0.463E-01    0.714E-02
DAV:   2    -0.139717258223E+02    0.19526E-04   -0.69486E-04   160   0.567E-02
  149 T=  1040. E= -.13702946E+02 F= -.13971726E+02 E0= -.13971726E+02  EK= 0.26878E+00 SP= 0.00E+00 SK= 0.00E+00
       N       E                     dE             d eps       ncg     rms          rms(c)
DAV:   1    -0.139845912368E+02   -0.12846E-01   -0.50369E-02   120   0.390E-01    0.866E-02
DAV:   2    -0.139847191153E+02   -0.12788E-03   -0.42061E-04   120   0.487E-02    0.475E-02
DAV:   3    -0.139848760004E+02   -0.15689E-03   -0.30003E-05   120   0.110E-02    0.169E-02
DAV:   4    -0.139849842804E+02   -0.10828E-03   -0.12349E-05   120   0.602E-03    0.314E-03
DAV:   5    -0.139850562115E+02   -0.71931E-04   -0.89342E-06   120   0.364E-03
  150 T=  1090. E= -.13703295E+02 F= -.13985056E+02 E0= -.13985056E+02  EK= 0.28176E+00 SP= 0.00E+00 SK= 0.00E+00
       N       E                     dE             d eps       ncg     rms          rms(c)
DAV:   1    -0.140637896519E+02   -0.78805E-01   -0.66706E-02   120   0.391E-01    0.492E-02
DAV:   2    -0.140638995365E+02   -0.10988E-03   -0.28091E-04   160   0.383E-02    0.270E-02
DAV:   3    -0.140639977935E+02   -0.98257E-04   -0.15621E-05    80   0.839E-03
  151 T=  1380. E= -.13707155E+02 F= -.14063998E+02 E0= -.14063998E+02  EK= 0.35684E+00 SP= 0.00E+00 SK= 0.00E+00
       N       E                     dE             d eps       ncg     rms          rms(c)
DAV:   1    -0.141512216848E+02   -0.87322E-01   -0.11074E-01   120   0.454E-01    0.402E-02
DAV:   2    -0.141513088059E+02   -0.87121E-04   -0.44442E-04   120   0.504E-02
  152 T=  1705. E= -.13710458E+02 F= -.14151309E+02 E0= -.14151309E+02  EK= 0.44085E+00 SP= 0.00E+00 SK= 0.00E+00
       N       E                     dE             d eps       ncg     rms          rms(c)
DAV:   1    -0.141931635818E+02   -0.41942E-01   -0.14429E-01   120   0.491E-01    0.619E-02
DAV:   2    -0.141932180010E+02   -0.54419E-04   -0.51557E-04   160   0.557E-02
  153 T=  1864. E= -.13711457E+02 F= -.14193218E+02 E0= -.14193218E+02  EK= 0.48176E+00 SP= 0.00E+00 SK= 0.00E+00
       N       E                     dE             d eps       ncg     rms          rms(c)
DAV:   1    -0.141706695062E+02    0.22494E-01   -0.15005E-01    80   0.484E-01    0.565E-02
DAV:   2    -0.141707478537E+02   -0.78348E-04   -0.98214E-04   160   0.780E-02
  154 T=  1780. E= -.13710540E+02 F= -.14170748E+02 E0= -.14170748E+02  EK= 0.46021E+00 SP= 0.00E+00 SK= 0.00E+00
       N       E                     dE             d eps       ncg     rms          rms(c)
DAV:   1    -0.140953629667E+02    0.75307E-01   -0.13129E-01    80   0.435E-01    0.412E-02
DAV:   2    -0.140954281972E+02   -0.65231E-04   -0.66700E-04   120   0.651E-02
  155 T=  1496. E= -.13708668E+02 F= -.14095428E+02 E0= -.14095428E+02  EK= 0.38676E+00 SP= 0.00E+00 SK= 0.00E+00
       N       E                     dE             d eps       ncg     rms          rms(c)
DAV:   1    -0.139934796552E+02    0.10188E+00   -0.10254E-01    80   0.382E-01    0.257E-02
DAV:   2    -0.139935613771E+02   -0.81722E-04   -0.60602E-04   160   0.582E-02
  156 T=  1110. E= -.13706718E+02 F= -.13993561E+02 E0= -.13993561E+02  EK= 0.28684E+00 SP= 0.00E+00 SK= 0.00E+00
       N       E                     dE             d eps       ncg     rms          rms(c)
DAV:   1    -0.138933157430E+02    0.10016E+00   -0.71756E-02    80   0.325E-01    0.458E-02
DAV:   2    -0.138933859830E+02   -0.70240E-04   -0.51137E-04   120   0.514E-02
  157 T=   728. E= -.13705146E+02 F= -.13893386E+02 E0= -.13893386E+02  EK= 0.18824E+00 SP= 0.00E+00 SK= 0.00E+00
       N       E                     dE             d eps       ncg     rms          rms(c)
DAV:   1    -0.138181198757E+02    0.75196E-01   -0.42504E-02    80   0.245E-01    0.478E-02
DAV:   2    -0.138181752960E+02   -0.55420E-04   -0.36513E-04   160   0.434E-02
  158 T=   441. E= -.13704103E+02 F= -.13818175E+02 E0= -.13818175E+02  EK= 0.11407E+00 SP= 0.00E+00 SK= 0.00E+00
       N       E                     dE             d eps       ncg     rms          rms(c)
DAV:   1    -0.137831336043E+02    0.34986E-01   -0.28997E-02   120   0.186E-01    0.295E-02
DAV:   2    -0.137831837352E+02   -0.50131E-04   -0.13869E-04   160   0.227E-02
  159 T=   308. E= -.13703629E+02 F= -.13783184E+02 E0= -.13783184E+02  EK= 0.79555E-01 SP= 0.00E+00 SK= 0.00E+00
       N       E                     dE             d eps       ncg     rms          rms(c)
DAV:   1    -0.137943670330E+02   -0.11233E-01   -0.26136E-02   120   0.164E-01    0.299E-02
DAV:   2    -0.137944150793E+02   -0.48046E-04   -0.57181E-05   160   0.186E-02
  160 T=   350. E= -.13703951E+02 F= -.13794415E+02 E0= -.13794415E+02  EK= 0.90464E-01 SP= 0.00E+00 SK= 0.00E+00
       N       E                     dE             d eps       ncg     rms          rms(c)
DAV:   1    -0.138473637831E+02   -0.52997E-01   -0.41319E-02   120   0.224E-01    0.196E-02
DAV:   2    -0.138473900150E+02   -0.26232E-04   -0.78642E-05    80   0.227E-02
  161 T=   551. E= -.13704994E+02 F= -.13847390E+02 E0= -.13847390E+02  EK= 0.14240E+00 SP= 0.00E+00 SK= 0.00E+00
       N       E                     dE             d eps       ncg     rms          rms(c)
DAV:   1    -0.139267916467E+02   -0.79428E-01   -0.72681E-02   120   0.312E-01    0.191E-02
DAV:   2    -0.139268713406E+02   -0.79694E-04   -0.16260E-04   160   0.315E-02
  162 T=   852. E= -.13706508E+02 F= -.13926871E+02 E0= -.13926871E+02  EK= 0.22036E+00 SP= 0.00E+00 SK= 0.00E+00
       N       E                     dE             d eps       ncg     rms          rms(c)
DAV:   1    -0.140078934546E+02   -0.81102E-01   -0.11169E-01   120   0.396E-01    0.251E-02
DAV:   2    -0.140079883213E+02   -0.94867E-04   -0.28540E-04   120   0.400E-02
  163 T=  1158. E= -.13708640E+02 F= -.14007988E+02 E0= -.14007988E+02  EK= 0.29935E+00 SP= 0.00E+00 SK= 0.00E+00
       N       E                     dE             d eps       ncg     rms          rms(c)
DAV:   1    -0.140589584380E+02   -0.51065E-01   -0.14889E-01   120   0.457E-01    0.286E-02
DAV:   2    -0.140589914675E+02   -0.33030E-04   -0.24690E-04   120   0.410E-02
  164 T=  1347. E= -.13710753E+02 F= -.14058991E+02 E0= -.14058991E+02  EK= 0.34824E+00 SP= 0.00E+00 SK= 0.00E+00
       N       E                     dE             d eps       ncg     rms          rms(c)
DAV:   1    -0.140524874434E+02    0.64710E-02   -0.16453E-01   120   0.475E-01    0.171E-02
DAV:   2    -0.140525841850E+02   -0.96742E-04   -0.19333E-04   160   0.373E-02
  165 T=  1321. E= -.13711043E+02 F= -.14052584E+02 E0= -.14052584E+02  EK= 0.34154E+00 SP= 0.00E+00 SK= 0.00E+00
       N       E                     dE             d eps       ncg     rms          rms(c)
DAV:   1    -0.139884828345E+02    0.64005E-01   -0.14318E-01   160   0.445E-01    0.327E-02
DAV:   2    -0.139885580569E+02   -0.75222E-04   -0.16183E-04   120   0.285E-02
  166 T=  1083. E= -.13708595E+02 F= -.13988558E+02 E0= -.13988558E+02  EK= 0.27996E+00 SP= 0.00E+00 SK= 0.00E+00
       N       E                     dE             d eps       ncg     rms          rms(c)
DAV:   1    -0.139106117826E+02    0.77871E-01   -0.95518E-02   120   0.382E-01    0.680E-02
DAV:   2    -0.139106229604E+02   -0.11178E-04   -0.40097E-04   160   0.406E-02
  167 T=   799. E= -.13704114E+02 F= -.13910623E+02 E0= -.13910623E+02  EK= 0.20651E+00 SP= 0.00E+00 SK= 0.00E+00
       N       E                     dE             d eps       ncg     rms          rms(c)
DAV:   1    -0.138896029533E+02    0.21009E-01   -0.50798E-02   160   0.305E-01    0.733E-02
DAV:   2    -0.138896653069E+02   -0.62354E-04   -0.30656E-04   120   0.307E-02
  168 T=   728. E= -.13701416E+02 F= -.13889665E+02 E0= -.13889665E+02  EK= 0.18825E+00 SP= 0.00E+00 SK= 0.00E+00
       N       E                     dE             d eps       ncg     rms          rms(c)
DAV:   1    -0.139618353732E+02   -0.72232E-01   -0.47351E-02   120   0.339E-01    0.406E-02
DAV:   2    -0.139620053445E+02   -0.16997E-03   -0.23964E-04    80   0.378E-02    0.216E-02
DAV:   3    -0.139621787642E+02   -0.17342E-03   -0.12016E-05   120   0.634E-03    0.971E-03
DAV:   4    -0.139623975274E+02   -0.21876E-03   -0.24739E-05   160   0.620E-03    0.278E-03
DAV:   5    -0.139625286227E+02   -0.13110E-03   -0.25278E-05   120   0.500E-03    0.242E-03
DAV:   6    -0.139625351470E+02   -0.65244E-05   -0.74333E-07   160   0.111E-03
  169 T=   998. E= -.13704451E+02 F= -.13962535E+02 E0= -.13962535E+02  EK= 0.25808E+00 SP= 0.00E+00 SK= 0.00E+00
       N       E                     dE             d eps       ncg     rms          rms(c)
DAV:   1    -0.140873785835E+02   -0.12485E+00   -0.89813E-02   120   0.469E-01    0.447E-02
DAV:   2    -0.140876349256E+02   -0.25634E-03   -0.31837E-04   160   0.485E-02    0.267E-02
DAV:   3    -0.140879861941E+02   -0.35127E-03   -0.31260E-05   160   0.935E-03    0.643E-03
DAV:   4    -0.140881565427E+02   -0.17035E-03   -0.11095E-05   160   0.434E-03    0.355E-03
DAV:   5    -0.140882992789E+02   -0.14274E-03   -0.16924E-05   160   0.432E-03    0.145E-03
DAV:   6    -0.140883300985E+02   -0.30820E-04   -0.38906E-06   120   0.193E-03
  170 T=  1466. E= -.13709367E+02 F= -.14088330E+02 E0= -.14088330E+02  EK= 0.37896E+00 SP= 0.00E+00 SK= 0.00E+00
       N       E                     dE             d eps       ncg     rms          rms(c)
DAV:   1    -0.141917460558E+02   -0.10345E+00   -0.14273E-01   120   0.574E-01    0.377E-02
DAV:   2    -0.141918154416E+02   -0.69386E-04   -0.47193E-04   120   0.566E-02
  171 T=  1856. E= -.13712125E+02 F= -.14191815E+02 E0= -.14191815E+02  EK= 0.47969E+00 SP= 0.00E+00 SK= 0.00E+00
       N       E                     dE             d eps       ncg     rms          rms(c)
DAV:   1    -0.142242245322E+02   -0.32478E-01   -0.16814E-01   120   0.599E-01    0.650E-02
DAV:   2    -0.142243253376E+02   -0.10081E-03   -0.81088E-04   160   0.722E-02    0.365E-02
DAV:   3    -0.142243895966E+02   -0.64259E-04   -0.15521E-05   120   0.790E-03
  172 T=  1982. E= -.13712016E+02 F= -.14224390E+02 E0= -.14224390E+02  EK= 0.51237E+00 SP= 0.00E+00 SK= 0.00E+00
       N       E                     dE             d eps       ncg     rms          rms(c)
DAV:   1    -0.141821694980E+02    0.42156E-01   -0.16222E-01   120   0.571E-01    0.384E-02
DAV:   2    -0.141822076071E+02   -0.38109E-04   -0.59289E-04   160   0.604E-02
  173 T=  1826. E= -.13710265E+02 F= -.14182208E+02 E0= -.14182208E+02  EK= 0.47194E+00 SP= 0.00E+00 SK= 0.00E+00
       N       E                     dE             d eps       ncg     rms          rms(c)
DAV:   1    -0.140901558322E+02    0.92014E-01   -0.12978E-01   120   0.469E-01    0.356E-02
DAV:   2    -0.140901999146E+02   -0.44082E-04   -0.33807E-04   120   0.449E-02
  174 T=  1479. E= -.13707926E+02 F= -.14090200E+02 E0= -.14090200E+02  EK= 0.38227E+00 SP= 0.00E+00 SK= 0.00E+00
       N       E                     dE             d eps       ncg     rms          rms(c)
DAV:   1    -0.139826395998E+02    0.10752E+00   -0.98849E-02    80   0.424E-01    0.320E-02
DAV:   2    -0.139827964158E+02   -0.15682E-03   -0.12063E-03   120   0.784E-02    0.289E-02
DAV:   3    -0.139828160464E+02   -0.19631E-04   -0.99210E-06   160   0.542E-03
  175 T=  1071. E= -.13705866E+02 F= -.13982816E+02 E0= -.13982816E+02  EK= 0.27695E+00 SP= 0.00E+00 SK= 0.00E+00
       N       E                     dE             d eps       ncg     rms          rms(c)
DAV:   1    -0.138910300152E+02    0.91766E-01   -0.61161E-02   120   0.320E-01    0.385E-02
DAV:   2    -0.138910614591E+02   -0.31444E-04   -0.16669E-04   120   0.320E-02
  176 T=   722. E= -.13704453E+02 F= -.13891061E+02 E0= -.13891061E+02  EK= 0.18661E+00 SP= 0.00E+00 SK= 0.00E+00
       N       E                     dE             d eps       ncg     rms          rms(c)
DAV:   1    -0.138365724613E+02    0.54458E-01   -0.35980E-02   120   0.230E-01    0.148E-02
DAV:   2    -0.138366308163E+02   -0.58355E-04   -0.11918E-04   120   0.251E-02
  177 T=   514. E= -.13703628E+02 F= -.13836631E+02 E0= -.13836631E+02  EK= 0.13300E+00 SP= 0.00E+00 SK= 0.00E+00
       N       E                     dE             d eps       ncg     rms          rms(c)
DAV:   1    -0.138305235995E+02    0.60489E-02   -0.26808E-02   120   0.170E-01    0.129E-02
DAV:   2    -0.138305938567E+02   -0.70257E-04   -0.73771E-05   120   0.192E-02
  178 T=   491. E= -.13703645E+02 F= -.13830594E+02 E0= -.13830594E+02  EK= 0.12695E+00 SP= 0.00E+00 SK= 0.00E+00
       N       E                     dE             d eps       ncg     rms          rms(c)
DAV:   1    -0.138719667970E+02   -0.41443E-01   -0.38308E-02   120   0.193E-01    0.114E-02
DAV:   2    -0.138719799384E+02   -0.13141E-04   -0.57846E-05   120   0.181E-02
  179 T=   647. E= -.13704698E+02 F= -.13871980E+02 E0= -.13871980E+02  EK= 0.16728E+00 SP= 0.00E+00 SK= 0.00E+00
       N       E                     dE             d eps       ncg     rms          rms(c)
DAV:   1    -0.139461073368E+02   -0.74141E-01   -0.71622E-02   120   0.269E-01    0.180E-02
DAV:   2    -0.139461873615E+02   -0.80025E-04   -0.14527E-04   160   0.283E-02
  180 T=   928. E= -.13706323E+02 F= -.13946187E+02 E0= -.13946187E+02  EK= 0.23986E+00 SP= 0.00E+00 SK= 0.00E+00
       N       E                     dE             d eps       ncg     rms          rms(c)
DAV:   1    -0.140259364227E+02   -0.79829E-01   -0.11858E-01    80   0.357E-01    0.185E-02
DAV:   2    -0.140260975223E+02   -0.16110E-03   -0.77601E-04   120   0.657E-02    0.191E-02
DAV:   3    -0.140261495074E+02   -0.51985E-04   -0.37071E-06   120   0.319E-03
  181 T=  1227. E= -.13708841E+02 F= -.14026150E+02 E0= -.14026150E+02  EK= 0.31731E+00 SP= 0.00E+00 SK= 0.00E+00
       N       E                     dE             d eps       ncg     rms          rms(c)
DAV:   1    -0.140740427229E+02   -0.47945E-01   -0.16833E-01   120   0.435E-01    0.311E-02
DAV:   2    -0.140740719926E+02   -0.29270E-04   -0.31794E-04   120   0.437E-02
  182 T=  1402. E= -.13711559E+02 F= -.14074072E+02 E0= -.14074072E+02  EK= 0.36251E+00 SP= 0.00E+00 SK= 0.00E+00
       N       E                     dE             d eps       ncg     rms          rms(c)
DAV:   1    -0.140540523443E+02    0.19990E-01   -0.19080E-01   120   0.476E-01    0.277E-02
DAV:   2    -0.140541525591E+02   -0.10021E-03   -0.40609E-04   120   0.503E-02    0.182E-02
DAV:   3    -0.140542339863E+02   -0.81427E-04   -0.85565E-06   120   0.492E-03
  183 T=  1322. E= -.13712386E+02 F= -.14054234E+02 E0= -.14054234E+02  EK= 0.34185E+00 SP= 0.00E+00 SK= 0.00E+00
       N       E                     dE             d eps       ncg     rms          rms(c)
DAV:   1    -0.139611227342E+02    0.93030E-01   -0.16619E-01   120   0.460E-01    0.221E-02
DAV:   2    -0.139611671336E+02   -0.44399E-04   -0.28267E-04   120   0.409E-02
  184 T=   973. E= -.13709649E+02 F= -.13961167E+02 E0= -.13961167E+02  EK= 0.25152E+00 SP= 0.00E+00 SK= 0.00E+00
       N       E                     dE             d eps       ncg     rms          rms(c)
DAV:   1    -0.138449069378E+02    0.11622E+00   -0.10030E-01    80   0.410E-01    0.563E-02
DAV:   2    -0.138449815838E+02   -0.74646E-04   -0.99090E-04   120   0.725E-02
  185 T=   546. E= -.13703887E+02 F= -.13844982E+02 E0= -.13844982E+02  EK= 0.14109E+00 SP= 0.00E+00 SK= 0.00E+00
       N       E                     dE             d eps       ncg     rms          rms(c)
DAV:   1    -0.137930092180E+02    0.51898E-01   -0.41971E-02   120   0.342E-01    0.718E-02
DAV:   2    -0.137930979182E+02   -0.88700E-04   -0.39873E-04   120   0.445E-02
  186 T=   358. E= -.13700513E+02 F= -.13793098E+02 E0= -.13793098E+02  EK= 0.92585E-01 SP= 0.00E+00 SK= 0.00E+00
       N       E                     dE             d eps       ncg     rms          rms(c)
DAV:   1    -0.138527015821E+02   -0.59692E-01   -0.32414E-02   120   0.306E-01    0.515E-02
DAV:   2    -0.138527756300E+02   -0.74048E-04   -0.34656E-04   120   0.418E-02
  187 T=   578. E= -.13703389E+02 F= -.13852776E+02 E0= -.13852776E+02  EK= 0.14939E+00 SP= 0.00E+00 SK= 0.00E+00
       N       E                     dE             d eps       ncg     rms          rms(c)
DAV:   1    -0.139833831967E+02   -0.13068E+00   -0.81200E-02   120   0.391E-01    0.624E-02
DAV:   2    -0.139834186371E+02   -0.35440E-04   -0.41070E-04   120   0.481E-02
  188 T=  1062. E= -.13708785E+02 F= -.13983419E+02 E0= -.13983419E+02  EK= 0.27463E+00 SP= 0.00E+00 SK= 0.00E+00
       N       E                     dE             d eps       ncg     rms          rms(c)
DAV:   1    -0.141045725889E+02   -0.12119E+00   -0.14470E-01   120   0.480E-01    0.537E-02
DAV:   2    -0.141046848150E+02   -0.11223E-03   -0.77998E-04   120   0.663E-02    0.264E-02
DAV:   3    -0.141047430530E+02   -0.58238E-04   -0.74739E-06   120   0.516E-03
  189 T=  1520. E= -.13711912E+02 F= -.14104743E+02 E0= -.14104743E+02  EK= 0.39283E+00 SP= 0.00E+00 SK= 0.00E+00
       N       E                     dE             d eps       ncg     rms          rms(c)
DAV:   1    -0.141633125623E+02   -0.58628E-01   -0.17812E-01   120   0.488E-01    0.450E-02
[...]
DAV:   1    -0.140281667887E+02    0.12211E+00   -0.10947E-01   120   0.453E-01    0.468E-02
DAV:   2    -0.140282014753E+02   -0.34687E-04   -0.46522E-04   160   0.489E-02
  951 T=  1244. E= -.13706531E+02 F= -.14028201E+02 E0= -.14028201E+02  EK= 0.32167E+00 SP= 0.00E+00 SK= 0.00E+00
       N       E                     dE             d eps       ncg     rms          rms(c)
DAV:   1    -0.139133207182E+02    0.11485E+00   -0.62600E-02   120   0.433E-01    0.105E-01
DAV:   2    -0.139132950707E+02    0.25648E-04   -0.60918E-04   120   0.551E-02
  952 T=   819. E= -.13701552E+02 F= -.13913295E+02 E0= -.13913295E+02  EK= 0.21174E+00 SP= 0.00E+00 SK= 0.00E+00
       N       E                     dE             d eps       ncg     rms          rms(c)
DAV:   1    -0.138824093306E+02    0.30911E-01   -0.32373E-02   120   0.331E-01    0.815E-02
DAV:   2    -0.138824067447E+02    0.25859E-05   -0.21453E-04   120   0.365E-02
  953 T=   702. E= -.13700886E+02 F= -.13882407E+02 E0= -.13882407E+02  EK= 0.18152E+00 SP= 0.00E+00 SK= 0.00E+00
       N       E                     dE             d eps       ncg     rms          rms(c)
DAV:   1    -0.139468347593E+02   -0.64425E-01   -0.56314E-02   120   0.324E-01    0.296E-02
DAV:   2    -0.139469019916E+02   -0.67232E-04   -0.22539E-04   120   0.381E-02
  954 T=   934. E= -.13705555E+02 F= -.13946902E+02 E0= -.13946902E+02  EK= 0.24135E+00 SP= 0.00E+00 SK= 0.00E+00
       N       E                     dE             d eps       ncg     rms          rms(c)
DAV:   1    -0.140372504269E+02   -0.90416E-01   -0.11480E-01   120   0.423E-01    0.534E-02
DAV:   2    -0.140373116717E+02   -0.61245E-04   -0.52191E-04   120   0.540E-02
  955 T=  1265. E= -.13710311E+02 F= -.14037312E+02 E0= -.14037312E+02  EK= 0.32700E+00 SP= 0.00E+00 SK= 0.00E+00
       N       E                     dE             d eps       ncg     rms          rms(c)
DAV:   1    -0.140780635849E+02   -0.40813E-01   -0.15534E-01   120   0.481E-01    0.632E-02
DAV:   2    -0.140780875425E+02   -0.23958E-04   -0.62275E-04   120   0.581E-02
  956 T=  1418. E= -.13711455E+02 F= -.14078088E+02 E0= -.14078088E+02  EK= 0.36663E+00 SP= 0.00E+00 SK= 0.00E+00
       N       E                     dE             d eps       ncg     rms          rms(c)
DAV:   1    -0.140459882072E+02    0.32075E-01   -0.15270E-01   120   0.462E-01    0.507E-02
DAV:   2    -0.140460213770E+02   -0.33170E-04   -0.55525E-04   120   0.565E-02
  957 T=  1301. E= -.13709661E+02 F= -.14046021E+02 E0= -.14046021E+02  EK= 0.33636E+00 SP= 0.00E+00 SK= 0.00E+00
       N       E                     dE             d eps       ncg     rms          rms(c)
DAV:   1    -0.139637403879E+02    0.82248E-01   -0.12040E-01   120   0.392E-01    0.232E-02
DAV:   2    -0.139638024570E+02   -0.62069E-04   -0.27817E-04   120   0.420E-02
  958 T=   993. E= -.13706992E+02 F= -.13963802E+02 E0= -.13963802E+02  EK= 0.25681E+00 SP= 0.00E+00 SK= 0.00E+00
       N       E                     dE             d eps       ncg     rms          rms(c)
DAV:   1    -0.138694539172E+02    0.94286E-01   -0.80757E-02   120   0.316E-01    0.281E-02
DAV:   2    -0.138694889583E+02   -0.35041E-04   -0.16859E-04   120   0.314E-02
  959 T=   637. E= -.13704823E+02 F= -.13869489E+02 E0= -.13869489E+02  EK= 0.16467E+00 SP= 0.00E+00 SK= 0.00E+00
       N       E                     dE             d eps       ncg     rms          rms(c)
DAV:   1    -0.137957879501E+02    0.73666E-01   -0.45036E-02   120   0.242E-01    0.328E-02
DAV:   2    -0.137958175894E+02   -0.29639E-04   -0.18099E-04   120   0.310E-02
  960 T=   358. E= -.13703388E+02 F= -.13795818E+02 E0= -.13795818E+02  EK= 0.92429E-01 SP= 0.00E+00 SK= 0.00E+00
       N       E                     dE             d eps       ncg     rms          rms(c)
DAV:   1    -0.137637469512E+02    0.32041E-01   -0.20970E-02   120   0.163E-01    0.260E-02
DAV:   2    -0.137638159831E+02   -0.69032E-04   -0.98804E-05   120   0.215E-02
  961 T=   236. E= -.13702721E+02 F= -.13763816E+02 E0= -.13763816E+02  EK= 0.61095E-01 SP= 0.00E+00 SK= 0.00E+00
       N       E                     dE             d eps       ncg     rms          rms(c)
DAV:   1    -0.137821720053E+02   -0.18425E-01   -0.14704E-02    80   0.129E-01    0.105E-02
DAV:   2    -0.137822152337E+02   -0.43228E-04   -0.56426E-05   120   0.168E-02
  962 T=   307. E= -.13702978E+02 F= -.13782215E+02 E0= -.13782215E+02  EK= 0.79237E-01 SP= 0.00E+00 SK= 0.00E+00
       N       E                     dE             d eps       ncg     rms          rms(c)
DAV:   1    -0.138476938621E+02   -0.65522E-01   -0.27217E-02    80   0.191E-01    0.923E-03
DAV:   2    -0.138477173259E+02   -0.23464E-04   -0.10008E-04   120   0.259E-02
  963 T=   556. E= -.13703920E+02 F= -.13847717E+02 E0= -.13847717E+02  EK= 0.14380E+00 SP= 0.00E+00 SK= 0.00E+00
       N       E                     dE             d eps       ncg     rms          rms(c)
DAV:   1    -0.139460790596E+02   -0.98385E-01   -0.55047E-02   120   0.289E-01    0.136E-02
DAV:   2    -0.139461646638E+02   -0.85604E-04   -0.15247E-04   120   0.311E-02
  964 T=   932. E= -.13705307E+02 F= -.13946165E+02 E0= -.13946165E+02  EK= 0.24086E+00 SP= 0.00E+00 SK= 0.00E+00
       N       E                     dE             d eps       ncg     rms          rms(c)
DAV:   1    -0.140539312452E+02   -0.10785E+00   -0.90875E-02   120   0.388E-01    0.909E-03
DAV:   2    -0.140540105042E+02   -0.79259E-04   -0.34530E-04   120   0.459E-02
  965 T=  1340. E= -.13707463E+02 F= -.14054011E+02 E0= -.14054011E+02  EK= 0.34655E+00 SP= 0.00E+00 SK= 0.00E+00
       N       E                     dE             d eps       ncg     rms          rms(c)
DAV:   1    -0.141393540434E+02   -0.85423E-01   -0.12795E-01   120   0.485E-01    0.299E-02
DAV:   2    -0.141394026756E+02   -0.48632E-04   -0.33313E-04   120   0.467E-02
  966 T=  1662. E= -.13709725E+02 F= -.14139403E+02 E0= -.14139403E+02  EK= 0.42968E+00 SP= 0.00E+00 SK= 0.00E+00
       N       E                     dE             d eps       ncg     rms          rms(c)
DAV:   1    -0.141702551660E+02   -0.30901E-01   -0.14562E-01   120   0.543E-01    0.205E-02
DAV:   2    -0.141703377088E+02   -0.82543E-04   -0.47280E-04   120   0.547E-02
  967 T=  1777. E= -.13710978E+02 F= -.14170338E+02 E0= -.14170338E+02  EK= 0.45936E+00 SP= 0.00E+00 SK= 0.00E+00
       N       E                     dE             d eps       ncg     rms          rms(c)
DAV:   1    -0.141314576799E+02    0.38797E-01   -0.13428E-01   120   0.555E-01    0.306E-02
DAV:   2    -0.141315366961E+02   -0.79016E-04   -0.47492E-04   120   0.549E-02
  968 T=  1632. E= -.13709752E+02 F= -.14131537E+02 E0= -.14131537E+02  EK= 0.42178E+00 SP= 0.00E+00 SK= 0.00E+00
       N       E                     dE             d eps       ncg     rms          rms(c)
DAV:   1    -0.140471187927E+02    0.84339E-01   -0.99126E-02   120   0.536E-01    0.738E-02
DAV:   2    -0.140471376543E+02   -0.18862E-04   -0.72792E-04   120   0.648E-02
  969 T=  1321. E= -.13705662E+02 F= -.14047138E+02 E0= -.14047138E+02  EK= 0.34148E+00 SP= 0.00E+00 SK= 0.00E+00
       N       E                     dE             d eps       ncg     rms          rms(c)
DAV:   1    -0.139827839258E+02    0.64335E-01   -0.57734E-02   120   0.444E-01    0.110E-01
DAV:   2    -0.139828343287E+02   -0.50403E-04   -0.51314E-04   120   0.545E-02
  970 T=  1088. E= -.13701642E+02 F= -.13982834E+02 E0= -.13982834E+02  EK= 0.28119E+00 SP= 0.00E+00 SK= 0.00E+00
       N       E                     dE             d eps       ncg     rms          rms(c)
DAV:   1    -0.139962047289E+02   -0.13421E-01   -0.43859E-02   120   0.316E-01    0.633E-02
DAV:   2    -0.139963663538E+02   -0.16162E-03   -0.17863E-04   120   0.331E-02    0.363E-02
DAV:   3    -0.139965984659E+02   -0.23211E-03   -0.24487E-05   120   0.821E-03    0.814E-03
DAV:   4    -0.139966943976E+02   -0.95932E-04   -0.64663E-06   120   0.352E-03
  971 T=  1137. E= -.13702741E+02 F= -.13996694E+02 E0= -.13996694E+02  EK= 0.29395E+00 SP= 0.00E+00 SK= 0.00E+00
       N       E                     dE             d eps       ncg     rms          rms(c)
DAV:   1    -0.140744932426E+02   -0.77895E-01   -0.77589E-02   120   0.308E-01    0.432E-02
DAV:   2    -0.140746341855E+02   -0.14094E-03   -0.20031E-04   120   0.337E-02    0.229E-02
DAV:   3    -0.140747595663E+02   -0.12538E-03   -0.71089E-06   120   0.453E-03    0.919E-03
DAV:   4    -0.140748581805E+02   -0.98614E-04   -0.77616E-06   120   0.387E-03
  972 T=  1421. E= -.13707447E+02 F= -.14074858E+02 E0= -.14074858E+02  EK= 0.36741E+00 SP= 0.00E+00 SK= 0.00E+00
       N       E                     dE             d eps       ncg     rms          rms(c)
DAV:   1    -0.141483972434E+02   -0.73638E-01   -0.13028E-01   120   0.405E-01    0.437E-02
DAV:   2    -0.141484449368E+02   -0.47693E-04   -0.53023E-04   120   0.561E-02
  973 T=  1693. E= -.13710872E+02 F= -.14148445E+02 E0= -.14148445E+02  EK= 0.43757E+00 SP= 0.00E+00 SK= 0.00E+00
       N       E                     dE             d eps       ncg     rms          rms(c)
DAV:   1    -0.141621971614E+02   -0.13800E-01   -0.15663E-01   120   0.460E-01    0.658E-02
DAV:   2    -0.141622302717E+02   -0.33110E-04   -0.56989E-04    80   0.579E-02
  974 T=  1745. E= -.13711011E+02 F= -.14162230E+02 E0= -.14162230E+02  EK= 0.45122E+00 SP= 0.00E+00 SK= 0.00E+00
       N       E                     dE             d eps       ncg     rms          rms(c)
DAV:   1    -0.141080892780E+02    0.54108E-01   -0.14664E-01   120   0.455E-01    0.558E-02
DAV:   2    -0.141081172648E+02   -0.27987E-04   -0.45102E-04   160   0.507E-02
  975 T=  1543. E= -.13709155E+02 F= -.14108117E+02 E0= -.14108117E+02  EK= 0.39896E+00 SP= 0.00E+00 SK= 0.00E+00
       N       E                     dE             d eps       ncg     rms          rms(c)
DAV:   1    -0.140107239609E+02    0.97365E-01   -0.11299E-01   120   0.400E-01    0.384E-02
DAV:   2    -0.140107522661E+02   -0.28305E-04   -0.34066E-04   120   0.438E-02
  976 T=  1175. E= -.13706904E+02 F= -.14010752E+02 E0= -.14010752E+02  EK= 0.30385E+00 SP= 0.00E+00 SK= 0.00E+00
       N       E                     dE             d eps       ncg     rms          rms(c)
DAV:   1    -0.139034733806E+02    0.10725E+00   -0.75237E-02    80   0.316E-01    0.154E-02
DAV:   2    -0.139035104829E+02   -0.37102E-04   -0.30140E-04   160   0.417E-02
  977 T=   768. E= -.13705023E+02 F= -.13903510E+02 E0= -.13903510E+02  EK= 0.19849E+00 SP= 0.00E+00 SK= 0.00E+00
       N       E                     dE             d eps       ncg     rms          rms(c)
DAV:   1    -0.138147991694E+02    0.88674E-01   -0.46010E-02    80   0.278E-01    0.425E-02
DAV:   2    -0.138148417793E+02   -0.42610E-04   -0.41618E-04    80   0.468E-02
  978 T=   430. E= -.13703736E+02 F= -.13814842E+02 E0= -.13814842E+02  EK= 0.11111E+00 SP= 0.00E+00 SK= 0.00E+00
       N       E                     dE             d eps       ncg     rms          rms(c)
DAV:   1    -0.137635151725E+02    0.51284E-01   -0.20968E-02    80   0.182E-01    0.302E-02
DAV:   2    -0.137635616097E+02   -0.46437E-04   -0.23411E-04   120   0.329E-02
  979 T=   234. E= -.13703099E+02 F= -.13763562E+02 E0= -.13763562E+02  EK= 0.60462E-01 SP= 0.00E+00 SK= 0.00E+00
       N       E                     dE             d eps       ncg     rms          rms(c)
DAV:   1    -0.137584110174E+02    0.51042E-02   -0.11671E-02    80   0.119E-01    0.124E-02
DAV:   2    -0.137584418877E+02   -0.30870E-04   -0.35364E-05   160   0.127E-02
  980 T=   214. E= -.13703151E+02 F= -.13758442E+02 E0= -.13758442E+02  EK= 0.55291E-01 SP= 0.00E+00 SK= 0.00E+00
       N       E                     dE             d eps       ncg     rms          rms(c)
DAV:   1    -0.137987060096E+02   -0.40295E-01   -0.18367E-02   120   0.158E-01    0.129E-02
DAV:   2    -0.137987231103E+02   -0.17101E-04   -0.20880E-05   120   0.126E-02
  981 T=   367. E= -.13703786E+02 F= -.13798723E+02 E0= -.13798723E+02  EK= 0.94937E-01 SP= 0.00E+00 SK= 0.00E+00
       N       E                     dE             d eps       ncg     rms          rms(c)
DAV:   1    -0.138747358855E+02   -0.76030E-01   -0.39659E-02   120   0.245E-01    0.988E-03
DAV:   2    -0.138747698063E+02   -0.33921E-04   -0.53541E-05   160   0.198E-02
  982 T=   657. E= -.13704881E+02 F= -.13874770E+02 E0= -.13874770E+02  EK= 0.16989E+00 SP= 0.00E+00 SK= 0.00E+00
       N       E                     dE             d eps       ncg     rms          rms(c)
DAV:   1    -0.139688480111E+02   -0.94112E-01   -0.72270E-02   120   0.339E-01    0.151E-02
DAV:   2    -0.139689004284E+02   -0.52417E-04   -0.15256E-04   160   0.310E-02
  983 T=  1015. E= -.13706511E+02 F= -.13968900E+02 E0= -.13968900E+02  EK= 0.26239E+00 SP= 0.00E+00 SK= 0.00E+00
       N       E                     dE             d eps       ncg     rms          rms(c)
DAV:   1    -0.140562042351E+02   -0.87356E-01   -0.10877E-01   120   0.423E-01    0.235E-02
DAV:   2    -0.140562411647E+02   -0.36930E-04   -0.21691E-04   120   0.377E-02
  984 T=  1345. E= -.13708514E+02 F= -.14056241E+02 E0= -.14056241E+02  EK= 0.34773E+00 SP= 0.00E+00 SK= 0.00E+00
       N       E                     dE             d eps       ncg     rms          rms(c)
DAV:   1    -0.141081333176E+02   -0.51929E-01   -0.13720E-01   120   0.477E-01    0.192E-02
DAV:   2    -0.141081928543E+02   -0.59537E-04   -0.24472E-04   120   0.408E-02
  985 T=  1540. E= -.13710193E+02 F= -.14108193E+02 E0= -.14108193E+02  EK= 0.39800E+00 SP= 0.00E+00 SK= 0.00E+00
       N       E                     dE             d eps       ncg     rms          rms(c)
DAV:   1    -0.141021949705E+02    0.59383E-02   -0.14449E-01   120   0.499E-01    0.148E-02
DAV:   2    -0.141022851068E+02   -0.90136E-04   -0.25947E-04   120   0.419E-02
  986 T=  1516. E= -.13710492E+02 F= -.14102285E+02 E0= -.14102285E+02  EK= 0.39179E+00 SP= 0.00E+00 SK= 0.00E+00
       N       E                     dE             d eps       ncg     rms          rms(c)
DAV:   1    -0.140400066294E+02    0.62188E-01   -0.12072E-01    80   0.480E-01    0.443E-02
DAV:   2    -0.140401159210E+02   -0.10929E-03   -0.10460E-03   160   0.821E-02    0.253E-02
DAV:   3    -0.140401373900E+02   -0.21469E-04   -0.50501E-06   120   0.430E-03
  987 T=  1284. E= -.13708219E+02 F= -.14040137E+02 E0= -.14040137E+02  EK= 0.33192E+00 SP= 0.00E+00 SK= 0.00E+00
       N       E                     dE             d eps       ncg     rms          rms(c)
DAV:   1    -0.139648026222E+02    0.75313E-01   -0.79009E-02   120   0.432E-01    0.540E-02
DAV:   2    -0.139648927544E+02   -0.90132E-04   -0.45693E-04   160   0.492E-02
  988 T=  1011. E= -.13703507E+02 F= -.13964893E+02 E0= -.13964893E+02  EK= 0.26139E+00 SP= 0.00E+00 SK= 0.00E+00
       N       E                     dE             d eps       ncg     rms          rms(c)
DAV:   1    -0.139471257060E+02    0.17677E-01   -0.45808E-02   120   0.362E-01    0.902E-02
DAV:   2    -0.139472539036E+02   -0.12820E-03   -0.36255E-04   160   0.446E-02    0.498E-02
DAV:   3    -0.139474516431E+02   -0.19774E-03   -0.38680E-05   120   0.133E-02    0.143E-02
DAV:   4    -0.139475666692E+02   -0.11503E-03   -0.10759E-05   160   0.574E-03    0.291E-03
DAV:   5    -0.139476476445E+02   -0.80975E-04   -0.80587E-06   120   0.359E-03
  989 T=   952. E= -.13701504E+02 F= -.13947648E+02 E0= -.13947648E+02  EK= 0.24614E+00 SP= 0.00E+00 SK= 0.00E+00
       N       E                     dE             d eps       ncg     rms          rms(c)
DAV:   1    -0.140186569984E+02   -0.71090E-01   -0.59303E-02   120   0.362E-01    0.267E-02
DAV:   2    -0.140188393295E+02   -0.18233E-03   -0.18328E-04   120   0.335E-02    0.147E-02
DAV:   3    -0.140190780046E+02   -0.23868E-03   -0.23909E-05   120   0.695E-03    0.337E-03
DAV:   4    -0.140191833657E+02   -0.10536E-03   -0.84577E-06   120   0.337E-03    0.205E-03
DAV:   5    -0.140192580186E+02   -0.74653E-04   -0.89283E-06   120   0.298E-03
  990 T=  1216. E= -.13704867E+02 F= -.14019258E+02 E0= -.14019258E+02  EK= 0.31439E+00 SP= 0.00E+00 SK= 0.00E+00
       N       E                     dE             d eps       ncg     rms          rms(c)
DAV:   1    -0.141305631544E+02   -0.11138E+00   -0.11449E-01   120   0.468E-01    0.357E-02
DAV:   2    -0.141305963554E+02   -0.33201E-04   -0.36992E-04    80   0.476E-02
  991 T=  1627. E= -.13710050E+02 F= -.14130596E+02 E0= -.14130596E+02  EK= 0.42055E+00 SP= 0.00E+00 SK= 0.00E+00
       N       E                     dE             d eps       ncg     rms          rms(c)
DAV:   1    -0.142018761979E+02   -0.71313E-01   -0.16332E-01   120   0.550E-01    0.627E-02
DAV:   2    -0.142019295215E+02   -0.53324E-04   -0.66662E-04   120   0.622E-02
  992 T=  1894. E= -.13712244E+02 F= -.14201930E+02 E0= -.14201930E+02  EK= 0.48969E+00 SP= 0.00E+00 SK= 0.00E+00
       N       E                     dE             d eps       ncg     rms          rms(c)
DAV:   1    -0.141933035149E+02    0.85727E-02   -0.17262E-01   120   0.559E-01    0.700E-02
DAV:   2    -0.141933502196E+02   -0.46705E-04   -0.75510E-04   120   0.643E-02
  993 T=  1865. E= -.13711211E+02 F= -.14193350E+02 E0= -.14193350E+02  EK= 0.48214E+00 SP= 0.00E+00 SK= 0.00E+00
       N       E                     dE             d eps       ncg     rms          rms(c)
DAV:   1    -0.141158401420E+02    0.77463E-01   -0.14497E-01    80   0.508E-01    0.625E-02
DAV:   2    -0.141159169510E+02   -0.76809E-04   -0.12422E-03   120   0.856E-02    0.297E-02
DAV:   3    -0.141159312422E+02   -0.14291E-04   -0.11280E-05   120   0.595E-03
  994 T=  1575. E= -.13708819E+02 F= -.14115931E+02 E0= -.14115931E+02  EK= 0.40711E+00 SP= 0.00E+00 SK= 0.00E+00
       N       E                     dE             d eps       ncg     rms          rms(c)
DAV:   1    -0.140052465693E+02    0.11067E+00   -0.10886E-01   120   0.422E-01    0.495E-02
DAV:   2    -0.140052884980E+02   -0.41929E-04   -0.27539E-04    80   0.408E-02
  995 T=  1157. E= -.13706282E+02 F= -.14005288E+02 E0= -.14005288E+02  EK= 0.29901E+00 SP= 0.00E+00 SK= 0.00E+00
       N       E                     dE             d eps       ncg     rms          rms(c)
DAV:   1    -0.138981426445E+02    0.10710E+00   -0.71535E-02   120   0.369E-01    0.253E-02
DAV:   2    -0.138982013140E+02   -0.58670E-04   -0.28965E-04   120   0.397E-02
  996 T=   750. E= -.13704359E+02 F= -.13898201E+02 E0= -.13898201E+02  EK= 0.19384E+00 SP= 0.00E+00 SK= 0.00E+00
       N       E                     dE             d eps       ncg     rms          rms(c)
DAV:   1    -0.138218860473E+02    0.76257E-01   -0.38530E-02   120   0.261E-01    0.325E-02
DAV:   2    -0.138219326275E+02   -0.46580E-04   -0.22756E-04   120   0.327E-02
  997 T=   459. E= -.13703375E+02 F= -.13821933E+02 E0= -.13821933E+02  EK= 0.11856E+00 SP= 0.00E+00 SK= 0.00E+00
       N       E                     dE             d eps       ncg     rms          rms(c)
DAV:   1    -0.137914771830E+02    0.30409E-01   -0.21128E-02    80   0.177E-01    0.211E-02
DAV:   2    -0.137915047068E+02   -0.27524E-04   -0.16387E-04   120   0.287E-02
  998 T=   342. E= -.13703212E+02 F= -.13791505E+02 E0= -.13791505E+02  EK= 0.88293E-01 SP= 0.00E+00 SK= 0.00E+00
       N       E                     dE             d eps       ncg     rms          rms(c)
DAV:   1    -0.138101231169E+02   -0.18646E-01   -0.24088E-02    80   0.157E-01    0.788E-03
DAV:   2    -0.138101596502E+02   -0.36533E-04   -0.81587E-05   120   0.216E-02
  999 T=   412. E= -.13703654E+02 F= -.13810160E+02 E0= -.13810160E+02  EK= 0.10651E+00 SP= 0.00E+00 SK= 0.00E+00
       N       E                     dE             d eps       ncg     rms          rms(c)
DAV:   1    -0.138703441654E+02   -0.60221E-01   -0.44968E-02   120   0.220E-01    0.124E-02
DAV:   2    -0.138704069890E+02   -0.62824E-04   -0.48958E-05    80   0.184E-02
 1000 T=   641. E= -.13704746E+02 F= -.13870407E+02 E0= -.13870407E+02  EK= 0.16566E+00 SP= 0.00E+00 SK= 0.00E+00
