unknown system                          
           1
     6.350160    0.000000    0.000000
     0.000000    6.350160    0.000000
     0.000000    0.000000    6.350160
   O    H 
   1   2
Direct configuration=     1
   0.00000000  0.00000000  0.00000000
   0.09166667  0.88083333  0.00000000
   0.09166667  0.11916667  0.00000000
Direct configuration=     2
   0.00026209  0.99982582  0.00000000
   0.08782786  0.87943233  0.00000000
   0.08624990  0.11615986  0.00000000
Direct configuration=     3
   0.00045703  0.99961752  0.00000000
   0.08432216  0.87764365  0.00000000
   0.08157402  0.11408488  0.00000000
Direct configuration=     4
   0.00054889  0.99933782  0.00000000
   0.08122818  0.87541873  0.00000000
   0.07813553  0.11358875  0.00000000
Direct configuration=     5
   0.00051822  0.99896113  0.00000000
   0.07857499  0.87279159  0.00000000
   0.07621731  0.11504629  0.00000000
Direct configuration=     6
   0.00036900  0.99848831  0.00000000
   0.07635298  0.86987090  0.00000000
   0.07576372  0.11833419  0.00000000
Direct configuration=     7
   0.00012424  0.99794552  0.00000000
   0.07452862  0.86681868  0.00000000
   0.07644080  0.12287429  0.00000000
Direct configuration=     8
   0.99981377  0.99736899  0.00000000
   0.07305666  0.86382238  0.00000000
   0.07781779  0.12790014  0.00000000
Direct configuration=     9
   0.99946468  0.99679157  0.00000000
   0.07188970  0.86106735  0.00000000
   0.07950814  0.13270012  0.00000000
Direct configuration=    10
   0.99909769  0.99623725  0.00000000
   0.07098535  0.85871761  0.00000000
   0.08122192  0.13672600  0.00000000
Direct configuration=    11
   0.99872731  0.99572136  0.00000000
   0.07030892  0.85690500  0.00000000
   0.08276245  0.13960162  0.00000000
Direct configuration=    12
   0.99836298  0.99525294  0.00000000
   0.06983554  0.85572047  0.00000000
   0.08400397  0.14109207  0.00000000
Direct configuration=    13
   0.99801024  0.99483672  0.00000000
   0.06955037  0.85521159  0.00000000
   0.08487189  0.14107268  0.00000000
Direct configuration=    14
   0.99767165  0.99447484  0.00000000
   0.06944876  0.85538226  0.00000000
   0.08533008  0.13950541  0.00000000
Direct configuration=    15
   0.99734707  0.99416732  0.00000000
   0.06953579  0.85619295  0.00000000
   0.08537669  0.13642982  0.00000000
Direct configuration=    16
   0.99703331  0.99391158  0.00000000
   0.06982582  0.85756186  0.00000000
   0.08504863  0.13196889  0.00000000
Direct configuration=    17
   0.99672339  0.99370127  0.00000000
   0.07034128  0.85936675  0.00000000
   0.08443490  0.12634611  0.00000000
Direct configuration=    18
   0.99640537  0.99352431  0.00000000
   0.07111034  0.86145085  0.00000000
   0.08369793  0.11991066  0.00000000
Direct configuration=    19
   0.99606094  0.99336075  0.00000000
   0.07216280  0.86363257  0.00000000
   0.08310113  0.11316291  0.00000000
Direct configuration=    20
   0.99566504  0.99318223  0.00000000
   0.07352279  0.86572262  0.00000000
   0.08302039  0.10674503  0.00000000
Direct configuration=    21
   0.99518896  0.99295607  0.00000000
   0.07520047  0.86754484  0.00000000
   0.08390446  0.10135658  0.00000000
Direct configuration=    22
   0.99460950  0.99265628  0.00000000
   0.07718252  0.86896104  0.00000000
   0.08613843  0.09755296  0.00000000
Direct configuration=    23
   0.99392175  0.99227603  0.00000000
   0.07942472  0.86989150  0.00000000
   0.08984640  0.09552373  0.00000000
Direct configuration=    24
   0.99314546  0.99183054  0.00000000
   0.08184786  0.87032676  0.00000000
   0.09479128  0.09503411  0.00000000
Direct configuration=    25
   0.99231880  0.99134721  0.00000000
   0.08434094  0.87032509  0.00000000
   0.10047137  0.09558645  0.00000000
Direct configuration=    26
   0.99148597  0.99085295  0.00000000
   0.08677110  0.86999352  0.00000000
   0.10631238  0.09664277  0.00000000
Direct configuration=    27
   0.99068733  0.99036741  0.00000000
   0.08899826  0.86946157  0.00000000
   0.11180877  0.09775907  0.00000000
Direct configuration=    28
   0.98995533  0.98990219  0.00000000
   0.09088858  0.86885798  0.00000000
   0.11657454  0.09862028  0.00000000
Direct configuration=    29
   0.98931391  0.98946305  0.00000000
   0.09232643  0.86829220  0.00000000
   0.12034182  0.09902509  0.00000000
Direct configuration=    30
   0.98877955  0.98905228  0.00000000
   0.09322126  0.86784440  0.00000000
   0.12293711  0.09885736  0.00000000
Direct configuration=    31
   0.98836235  0.98867041  0.00000000
   0.09351312  0.86755958  0.00000000
   0.12425914  0.09806290  0.00000000
Direct configuration=    32
   0.98806690  0.98831733  0.00000000
   0.09317378  0.86744672  0.00000000
   0.12426198  0.09663357  0.00000000
Direct configuration=    33
   0.98789256  0.98799260  0.00000000
   0.09220681  0.86747793  0.00000000
   0.12295231  0.09460423  0.00000000
Direct configuration=    34
   0.98783334  0.98769539  0.00000000
   0.09064680  0.86758914  0.00000000
   0.12039231  0.09205357  0.00000000
Direct configuration=    35
   0.98787719  0.98742372  0.00000000
   0.08855797  0.86768133  0.00000000
   0.11671061  0.08911191  0.00000000
Direct configuration=    36
   0.98800487  0.98717328  0.00000000
   0.08603092  0.86762548  0.00000000
   0.11212381  0.08597711  0.00000000
Direct configuration=    37
   0.98818865  0.98693542  0.00000000
   0.08317546  0.86727276  0.00000000
   0.10696519  0.08293593  0.00000000
Direct configuration=    38
   0.98839177  0.98669500  0.00000000
   0.08010915  0.86647333  0.00000000
   0.10170592  0.08038032  0.00000000
Direct configuration=    39
   0.98857038  0.98642951  0.00000000
   0.07694250  0.86510256  0.00000000
   0.09693605  0.07879542  0.00000000
Direct configuration=    40
   0.98868100  0.98611244  0.00000000
   0.07376552  0.86309147  0.00000000
   0.09326028  0.07867472  0.00000000
Direct configuration=    41
   0.98869399  0.98572286  0.00000000
   0.07063776  0.86045109  0.00000000
   0.09109516  0.08034185  0.00000000
Direct configuration=    42
   0.98860502  0.98525656  0.00000000
   0.06758843  0.85727774  0.00000000
   0.09048074  0.08376780  0.00000000
Direct configuration=    43
   0.98843474  0.98472889  0.00000000
   0.06462378  0.85373848  0.00000000
   0.09108079  0.08853995  0.00000000
Direct configuration=    44
   0.98821598  0.98416644  0.00000000
   0.06173790  0.85004196  0.00000000
   0.09237519  0.09402619  0.00000000
Direct configuration=    45
   0.98798062  0.98359610  0.00000000
   0.05892267  0.84640598  0.00000000
   0.09386297  0.09957755  0.00000000
Direct configuration=    46
   0.98775300  0.98303915  0.00000000
   0.05617396  0.84303423  0.00000000
   0.09515844  0.10464940  0.00000000
Direct configuration=    47
   0.98754895  0.98251010  0.00000000
   0.05349489  0.84009959  0.00000000
   0.09600489  0.10883818  0.00000000
Direct configuration=    48
   0.98737725  0.98201816  0.00000000
   0.05089741  0.83773299  0.00000000
   0.09625117  0.11186832  0.00000000
Direct configuration=    49
   0.98724113  0.98156895  0.00000000
   0.04840445  0.83601876  0.00000000
   0.09582134  0.11356477  0.00000000
Direct configuration=    50
   0.98713991  0.98116590  0.00000000
   0.04604755  0.83499419  0.00000000
   0.09469477  0.11383459  0.00000000
Direct configuration=    51
   0.98706972  0.98081103  0.00000000
   0.04386566  0.83464972  0.00000000
   0.09289505  0.11265477  0.00000000
Direct configuration=    52
   0.98702344  0.98050462  0.00000000
   0.04190270  0.83492846  0.00000000
   0.09049257  0.11007775  0.00000000
Direct configuration=    53
   0.98699024  0.98024458  0.00000000
   0.04020697  0.83572686  0.00000000
   0.08761244  0.10624120  0.00000000
Direct configuration=    54
   0.98695439  0.98002441  0.00000000
   0.03882859  0.83689841  0.00000000
   0.08445599  0.10139611  0.00000000
Direct configuration=    55
   0.98689349  0.97983063  0.00000000
   0.03781757  0.83825905  0.00000000
   0.08133129  0.09594171  0.00000000
Direct configuration=    56
   0.98677712  0.97964044  0.00000000
   0.03721985  0.83960214  0.00000000
   0.07867888  0.09044946  0.00000000
Direct configuration=    57
   0.98656801  0.97942248  0.00000000
   0.03707316  0.84072049  0.00000000
   0.07705731  0.08562844  0.00000000
Direct configuration=    58
   0.98622936  0.97914481  0.00000000
   0.03740190  0.84143588  0.00000000
   0.07703105  0.08216768  0.00000000
Direct configuration=    59
   0.98573937  0.97879024  0.00000000
   0.03821259  0.84162934  0.00000000
   0.07894335  0.08046113  0.00000000
Direct configuration=    60
   0.98510419  0.97836777  0.00000000
   0.03948843  0.84126429  0.00000000
   0.08271276  0.08040264  0.00000000
Direct configuration=    61
   0.98435661  0.97790668  0.00000000
   0.04118414  0.84039774  0.00000000
   0.08785983  0.08146689  0.00000000
Direct configuration=    62
   0.98354222  0.97743964  0.00000000
   0.04322442  0.83916899  0.00000000
   0.09373161  0.08298955  0.00000000
Direct configuration=    63
   0.98270598  0.97699076  0.00000000
   0.04550843  0.83776960  0.00000000
   0.09971013  0.08439344  0.00000000
Direct configuration=    64
   0.98188577  0.97657258  0.00000000
   0.04791893  0.83640716  0.00000000
   0.10530718  0.08526989  0.00000000
Direct configuration=    65
   0.98111110  0.97618874  0.00000000
   0.05033329  0.83527401  0.00000000
   0.11017320  0.08536845  0.00000000
Direct configuration=    66
   0.98040425  0.97583783  0.00000000
   0.05263466  0.83452467  0.00000000
   0.11406911  0.08455698  0.00000000
Direct configuration=    67
   0.97978156  0.97551627  0.00000000
   0.05471932  0.83426532  0.00000000
   0.11683694  0.08278559  0.00000000
Direct configuration=    68
   0.97925419  0.97521970  0.00000000
   0.05650044  0.83455094  0.00000000
   0.11838417  0.08006798  0.00000000
Direct configuration=    69
   0.97882850  0.97494395  0.00000000
   0.05791124  0.83538336  0.00000000
   0.11867599  0.07646993  0.00000000
Direct configuration=    70
   0.97850600  0.97468517  0.00000000
   0.05890692  0.83671138  0.00000000
   0.11773439  0.07210548  0.00000000
Direct configuration=    71
   0.97828244  0.97443938  0.00000000
   0.05946611  0.83843060  0.00000000
   0.11564756  0.06714165  0.00000000
Direct configuration=    72
   0.97814653  0.97420182  0.00000000
   0.05959192  0.84038433  0.00000000
   0.11259279  0.06181076  0.00000000
Direct configuration=    73
   0.97807781  0.97396577  0.00000000
   0.05931196  0.84236622  0.00000000
   0.10886953  0.05642714  0.00000000
Direct configuration=    74
   0.97804502  0.97372127  0.00000000
   0.05867597  0.84413052  0.00000000
   0.10492970  0.05139620  0.00000000
Direct configuration=    75
   0.97800618  0.97345448  0.00000000
   0.05774922  0.84541430  0.00000000
   0.10137942  0.04720119  0.00000000
Direct configuration=    76
   0.97791412  0.97314945  0.00000000
   0.05660125  0.84597259  0.00000000
   0.09890299  0.04434242  0.00000000
Direct configuration=    77
   0.97773007  0.97279362  0.00000000
   0.05529030  0.84562533  0.00000000
   0.09806129  0.04320194  0.00000000
Direct configuration=    78
   0.97744048  0.97238473  0.00000000
   0.05385034  0.84430072  0.00000000
   0.09903661  0.04388724  0.00000000
Direct configuration=    79
   0.97706377  0.97193324  0.00000000
   0.05228374  0.84205628  0.00000000
   0.10153217  0.04617374  0.00000000
Direct configuration=    80
   0.97663986  0.97145677  0.00000000
   0.05056534  0.83906565  0.00000000
   0.10493522  0.04960532  0.00000000
Direct configuration=    81
   0.97621324  0.97097231  0.00000000
   0.04865460  0.83557981  0.00000000
   0.10857467  0.05365802  0.00000000
Direct configuration=    82
   0.97582163  0.97049197  0.00000000
   0.04651039  0.83187952  0.00000000
   0.11188830  0.05785680  0.00000000
Direct configuration=    83
   0.97549216  0.97002258  0.00000000
   0.04410222  0.82823773  0.00000000
   0.11447329  0.06182124  0.00000000
Direct configuration=    84
   0.97524182  0.96956740  0.00000000
   0.04141746  0.82489152  0.00000000
   0.11606872  0.06526249  0.00000000
Direct configuration=    85
   0.97507936  0.96912762  0.00000000
   0.03846408  0.82202984  0.00000000
   0.11652567  0.06797195  0.00000000
Direct configuration=    86
   0.97500718  0.96870386  0.00000000
   0.03526947  0.81978669  0.00000000
   0.11577863  0.06980649  0.00000000
Direct configuration=    87
   0.97502254  0.96829681  0.00000000
   0.03187868  0.81824015  0.00000000
   0.11382697  0.07067770  0.00000000
Direct configuration=    88
   0.97511820  0.96790743  0.00000000
   0.02835135  0.81741297  0.00000000
   0.11072695  0.07054716  0.00000000
Direct configuration=    89
   0.97528231  0.96753667  0.00000000
   0.02475833  0.81727253  0.00000000
   0.10659691  0.06943207  0.00000000
Direct configuration=    90
   0.97549758  0.96718454  0.00000000
   0.02117860  0.81772949  0.00000000
   0.10163483  0.06742195  0.00000000
Direct configuration=    91
   0.97573990  0.96684854  0.00000000
   0.01769563  0.81863753  0.00000000
   0.09614323  0.06470331  0.00000000
Direct configuration=    92
   0.97597649  0.96652136  0.00000000
   0.01439304  0.81979716  0.00000000
   0.09056237  0.06159224  0.00000000
Direct configuration=    93
   0.97616490  0.96618873  0.00000000
   0.01135036  0.82096687  0.00000000
   0.08549269  0.05855920  0.00000000
Direct configuration=    94
   0.97625588  0.96582993  0.00000000
   0.00863806  0.82188589  0.00000000
   0.08165155  0.05619682  0.00000000
Direct configuration=    95
   0.97620421  0.96542484  0.00000000
   0.00631415  0.82230967  0.00000000
   0.07970453  0.05507163  0.00000000
Direct configuration=    96
   0.97598609  0.96496708  0.00000000
   0.00442137  0.82205325  0.00000000
   0.07998958  0.05547117  0.00000000
Direct configuration=    97
   0.97561067  0.96447216  0.00000000
   0.00298615  0.82103422  0.00000000
   0.08233259  0.05722991  0.00000000
Direct configuration=    98
   0.97511357  0.96397036  0.00000000
   0.00201782  0.81929586  0.00000000
   0.08615419  0.05981988  0.00000000
Direct configuration=    99
   0.97453960  0.96349148  0.00000000
   0.00150815  0.81699972  0.00000000
   0.09074590  0.06260198  0.00000000
Direct configuration=   100
   0.97392931  0.96305475  0.00000000
   0.00143250  0.81438936  0.00000000
   0.09548420  0.06502448  0.00000000
Direct configuration=   101
   0.97331422  0.96266751  0.00000000
   0.00175291  0.81174338  0.00000000
   0.09990222  0.06669121  0.00000000
Direct configuration=   102
   0.97271726  0.96232876  0.00000000
   0.00242286  0.80932818  0.00000000
   0.10367951  0.06735124  0.00000000
Direct configuration=   103
   0.97215481  0.96203305  0.00000000
   0.00339119  0.80737006  0.00000000
   0.10660485  0.06686510  0.00000000
Direct configuration=   104
   0.97163828  0.96177324  0.00000000
   0.00460394  0.80603974  0.00000000
   0.10854999  0.06517690  0.00000000
Direct configuration=   105
   0.97117510  0.96154182  0.00000000
   0.00600641  0.80544755  0.00000000
   0.10945067  0.06229605  0.00000000
Direct configuration=   106
   0.97076907  0.96133162  0.00000000
   0.00754446  0.80564204  0.00000000
   0.10929984  0.05828806  0.00000000
Direct configuration=   107
   0.97042005  0.96113588  0.00000000
   0.00916571  0.80660977  0.00000000
   0.10815253  0.05327477  0.00000000
Direct configuration=   108
   0.97012275  0.96094775  0.00000000
   0.01082069  0.80827411  0.00000000
   0.10614330  0.04744195  0.00000000
Direct configuration=   109
   0.96986489  0.96075970  0.00000000
   0.01246441  0.81049229  0.00000000
   0.10351404  0.04105316  0.00000000
Direct configuration=   110
   0.96962510  0.96056295  0.00000000
   0.01405826  0.81305434  0.00000000
   0.10064539  0.03445879  0.00000000
Direct configuration=   111
   0.96937188  0.96034755  0.00000000
   0.01557184  0.81568936  0.00000000
   0.09807114  0.02808757  0.00000000
Direct configuration=   112
   0.96906625  0.96010415  0.00000000
   0.01698421  0.81808346  0.00000000
   0.09643494  0.02240275  0.00000000
Direct configuration=   113
   0.96867145  0.95982799  0.00000000
   0.01828234  0.81991636  0.00000000
   0.09633833  0.01780201  0.00000000
Direct configuration=   114
   0.96816869  0.95952271  0.00000000
   0.01945410  0.82092006  0.00000000
   0.09809429  0.01449617  0.00000000
Direct configuration=   115
   0.96756794  0.95919993  0.00000000
   0.02047868  0.82093592  0.00000000
   0.10156478  0.01245656  0.00000000
Direct configuration=   116
   0.96690424  0.95887345  0.00000000
   0.02131628  0.81995329  0.00000000
   0.10622998  0.01147288  0.00000000
Direct configuration=   117
   0.96622389  0.95855259  0.00000000
   0.02190663  0.81810574  0.00000000
   0.11141098  0.01126253  0.00000000
Direct configuration=   118
   0.96557132  0.95823943  0.00000000
   0.02217550  0.81563047  0.00000000
   0.11647033  0.01155483  0.00000000
Direct configuration=   119
   0.96498250  0.95793019  0.00000000
   0.02204764  0.81281128  0.00000000
   0.12090737  0.01212618  0.00000000
Direct configuration=   120
   0.96448360  0.95761808  0.00000000
   0.02145940  0.80992930  0.00000000
   0.12436754  0.01280446  0.00000000
Direct configuration=   121
   0.96409201  0.95729577  0.00000000
   0.02036639  0.80723112  0.00000000
   0.12661731  0.01346118  0.00000000
Direct configuration=   122
   0.96381782  0.95695690  0.00000000
   0.01874614  0.80491193  0.00000000
   0.12751671  0.01400187  0.00000000
Direct configuration=   123
   0.96366494  0.95659682  0.00000000
   0.01659843  0.80311189  0.00000000
   0.12700276  0.01436100  0.00000000
Direct configuration=   124
   0.96363187  0.95621286  0.00000000
   0.01394370  0.80191401  0.00000000
   0.12507943  0.01449814  0.00000000
Direct configuration=   125
   0.96371180  0.95580426  0.00000000
   0.01082080  0.80134556  0.00000000
   0.12181769  0.01439809  0.00000000
Direct configuration=   126
   0.96389189  0.95537177  0.00000000
   0.00728480  0.80137838  0.00000000
   0.11736790  0.01407665  0.00000000
Direct configuration=   127
   0.96415202  0.95491718  0.00000000
   0.00340483  0.80192775  0.00000000
   0.11198219  0.01359021  0.00000000
Direct configuration=   128
   0.96446305  0.95444228  0.00000000
   0.99926173  0.80285232  0.00000000
   0.10604643  0.01305151  0.00000000
Direct configuration=   129
   0.96478529  0.95394760  0.00000000
   0.99494466  0.80395826  0.00000000
   0.10010801  0.01264652  0.00000000
Direct configuration=   130
   0.96506953  0.95343137  0.00000000
   0.99054563  0.80501180  0.00000000
   0.09486173  0.01263752  0.00000000
Direct configuration=   131
   0.96526371  0.95289037  0.00000000
   0.98615360  0.80576268  0.00000000
   0.09105108  0.01332771  0.00000000
Direct configuration=   132
   0.96532763  0.95232412  0.00000000
   0.98184976  0.80598364  0.00000000
   0.08923655  0.01495395  0.00000000
Direct configuration=   133
   0.96524916  0.95174061  0.00000000
   0.97770670  0.80551654  0.00000000
   0.08954244  0.01754598  0.00000000
Direct configuration=   134
   0.96504698  0.95115742  0.00000000
   0.97378570  0.80430986  0.00000000
   0.09160827  0.02087420  0.00000000
Direct configuration=   135
   0.96475840  0.95059564  0.00000000
   0.97013969  0.80243342  0.00000000
   0.09478249  0.02453111  0.00000000
Direct configuration=   136
   0.96442315  0.95007195  0.00000000
   0.96681699  0.80006412  0.00000000
   0.09838059  0.02807245  0.00000000
Direct configuration=   137
   0.96407357  0.94959496  0.00000000
   0.96386345  0.79744689  0.00000000
   0.10183956  0.03111658  0.00000000
Direct configuration=   138
   0.96373218  0.94916589  0.00000000
   0.96132152  0.79484647  0.00000000
   0.10475848  0.03337956  0.00000000
Direct configuration=   139
   0.96341301  0.94878135  0.00000000
   0.95922794  0.79250879  0.00000000
   0.10687627  0.03467065  0.00000000
Direct configuration=   140
   0.96312377  0.94843580  0.00000000
   0.95761110  0.79063545  0.00000000
   0.10803971  0.03487616  0.00000000
Direct configuration=   141
   0.96286771  0.94812328  0.00000000
   0.95648974  0.78937290  0.00000000
   0.10817657  0.03394415  0.00000000
Direct configuration=   142
   0.96264444  0.94783801  0.00000000
   0.95587149  0.78880973  0.00000000
   0.10728523  0.03187779  0.00000000
Direct configuration=   143
   0.96245013  0.94757481  0.00000000
   0.95575097  0.78897463  0.00000000
   0.10543314  0.02873239  0.00000000
Direct configuration=   144
   0.96227674  0.94732864  0.00000000
   0.95610858  0.78983582  0.00000000
   0.10276855  0.02462024  0.00000000
Direct configuration=   145
   0.96211052  0.94709422  0.00000000
   0.95691037  0.79129764  0.00000000
   0.09954510  0.01972135  0.00000000
Direct configuration=   146
   0.96193027  0.94686565  0.00000000
   0.95810769  0.79319769  0.00000000
   0.09614963  0.01429206  0.00000000
Direct configuration=   147
   0.96170621  0.94663664  0.00000000
   0.95963847  0.79530518  0.00000000
   0.09312104  0.00866422  0.00000000
Direct configuration=   148
   0.96140215  0.94640214  0.00000000
   0.96143090  0.79733091  0.00000000
   0.09111112  0.00320794  0.00000000
Direct configuration=   149
   0.96098401  0.94616173  0.00000000
   0.96340942  0.79895441  0.00000000
   0.09074065  0.99824943  0.00000000
Direct configuration=   150
   0.96043415  0.94592299  0.00000000
   0.96550210  0.79987434  0.00000000
   0.09236348  0.99396968  0.00000000
Direct configuration=   151
   0.95976274  0.94570007  0.00000000
   0.96764580  0.79987809  0.00000000
   0.09587990  0.99035330  0.00000000
Direct configuration=   152
   0.95900508  0.94550649  0.00000000
   0.96978608  0.79890322  0.00000000
   0.10077789  0.98724542  0.00000000
Direct configuration=   153
   0.95820833  0.94534751  0.00000000
   0.97187170  0.79705742  0.00000000
   0.10635470  0.98445560  0.00000000
Direct configuration=   154
   0.95741820  0.94521748  0.00000000
   0.97384801  0.79458605  0.00000000
   0.11193339  0.98182932  0.00000000
Direct configuration=   155
   0.95667224  0.94510270  0.00000000
   0.97565497  0.79180507  0.00000000
   0.11697192  0.97926984  0.00000000
Direct configuration=   156
   0.95599853  0.94498611  0.00000000
   0.97723017  0.78903411  0.00000000
   0.12108307  0.97673050  0.00000000
Direct configuration=   157
   0.95541683  0.94485096  0.00000000
   0.97851312  0.78655133  0.00000000
   0.12401253  0.97420080  0.00000000
Direct configuration=   158
   0.95494009  0.94468297  0.00000000
   0.97944912  0.78457170  0.00000000
   0.12560875  0.97169386  0.00000000
Direct configuration=   159
   0.95457575  0.94447117  0.00000000
   0.97999172  0.78324075  0.00000000
   0.12579803  0.96923814  0.00000000
Direct configuration=   160
   0.95432628  0.94420785  0.00000000
   0.98010233  0.78263951  0.00000000
   0.12457971  0.96687602  0.00000000
Direct configuration=   161
   0.95418933  0.94388885  0.00000000
   0.97975090  0.78278303  0.00000000
   0.12202281  0.96466031  0.00000000
Direct configuration=   162
   0.95415712  0.94351323  0.00000000
   0.97891568  0.78362276  0.00000000
   0.11827375  0.96265409  0.00000000
Direct configuration=   163
   0.95421512  0.94308322  0.00000000
   0.97758352  0.78504765  0.00000000
   0.11357707  0.96093178  0.00000000
Direct configuration=   164
   0.95434043  0.94260430  0.00000000
   0.97575000  0.78688251  0.00000000
   0.10830383  0.95958029  0.00000000
Direct configuration=   165
   0.95449997  0.94208505  0.00000000
   0.97341995  0.78889044  0.00000000
   0.10297895  0.95869901  0.00000000
Direct configuration=   166
   0.95465078  0.94153666  0.00000000
   0.97060833  0.79078487  0.00000000
   0.09827407  0.95839601  0.00000000
Direct configuration=   167
   0.95474525  0.94097200  0.00000000
   0.96734123  0.79225771  0.00000000
   0.09492322  0.95877409  0.00000000
Direct configuration=   168
   0.95474352  0.94040428  0.00000000
   0.96365791  0.79302876  0.00000000
   0.09352461  0.95990221  0.00000000
Direct configuration=   169
   0.95462916  0.93984577  0.00000000
   0.95961168  0.79290809  0.00000000
   0.09428863  0.96177474  0.00000000
Direct configuration=   170
   0.95441601  0.93930609  0.00000000
   0.95527055  0.79185013  0.00000000
   0.09692586  0.96428247  0.00000000
Direct configuration=   171
   0.95413917  0.93879066  0.00000000
   0.95071921  0.78996888  0.00000000
   0.10079023  0.96722556  0.00000000
Direct configuration=   172
   0.95383904  0.93829968  0.00000000
   0.94605841  0.78750687  0.00000000
   0.10513469  0.97035769  0.00000000
Direct configuration=   173
   0.95354966  0.93782872  0.00000000
   0.94139983  0.78477862  0.00000000
   0.10930376  0.97343508  0.00000000
Direct configuration=   174
   0.95329460  0.93737095  0.00000000
   0.93685961  0.78210509  0.00000000
   0.11280489  0.97624605  0.00000000
Direct configuration=   175
   0.95308764  0.93691915  0.00000000
   0.93255134  0.77977112  0.00000000
   0.11530463  0.97862172  0.00000000
Direct configuration=   176
   0.95293502  0.93646730  0.00000000
   0.92857752  0.77800090  0.00000000
   0.11660124  0.98043523  0.00000000
Direct configuration=   177
   0.95283767  0.93601136  0.00000000
   0.92502454  0.77695015  0.00000000
   0.11659197  0.98159616  0.00000000
Direct configuration=   178
   0.95279248  0.93554931  0.00000000
   0.92196250  0.77670820  0.00000000
   0.11525595  0.98204752  0.00000000
Direct configuration=   179
   0.95279287  0.93508116  0.00000000
   0.91944082  0.77729969  0.00000000
   0.11264919  0.98176472  0.00000000
Direct configuration=   180
   0.95282862  0.93460869  0.00000000
   0.91748533  0.77868602  0.00000000
   0.10891121  0.98075835  0.00000000
Direct configuration=   181
   0.95288456  0.93413504  0.00000000
   0.91609466  0.78076323  0.00000000
   0.10428637  0.97908161  0.00000000
Direct configuration=   182
   0.95293891  0.93366456  0.00000000
   0.91523611  0.78335580  0.00000000
   0.09915554  0.97684041  0.00000000
Direct configuration=   183
   0.95296142  0.93320262  0.00000000
   0.91484267  0.78621093  0.00000000
   0.09406816  0.97420141  0.00000000
Direct configuration=   184
   0.95291357  0.93275597  0.00000000
   0.91481275  0.78899885  0.00000000
   0.08974276  0.97138637  0.00000000
Direct configuration=   185
   0.95275394  0.93233379  0.00000000
   0.91501788  0.79133158  0.00000000
   0.08697104  0.96863588  0.00000000
Direct configuration=   186
   0.95245181  0.93194964  0.00000000
   0.91532197  0.79281103  0.00000000
   0.08638058  0.96613191  0.00000000
Direct configuration=   187
   0.95200288  0.93162114  0.00000000
   0.91561183  0.79311056  0.00000000
   0.08815451  0.96392033  0.00000000
Direct configuration=   188
   0.95143397  0.93136445  0.00000000
   0.91582912  0.79207396  0.00000000
   0.09192317  0.96189963  0.00000000
Direct configuration=   189
   0.95079023  0.93118583  0.00000000
   0.91598563  0.78977598  0.00000000
   0.09695188  0.95989402  0.00000000
Direct configuration=   190
   0.95011762  0.93107759  0.00000000
   0.91615091  0.78650353  0.00000000
   0.10243469  0.95773782  0.00000000
Direct configuration=   191
   0.94945337  0.93102120  0.00000000
   0.91641771  0.78266441  0.00000000
   0.10768512  0.95531927  0.00000000
Direct configuration=   192
   0.94882389  0.93099274  0.00000000
   0.91687129  0.77869376  0.00000000
   0.11219476  0.95258624  0.00000000
Direct configuration=   193
   0.94824692  0.93096816  0.00000000
   0.91757077  0.77498182  0.00000000
   0.11562021  0.94953348  0.00000000
Direct configuration=   194
   0.94773416  0.93092646  0.00000000
   0.91854291  0.77183691  0.00000000
   0.11774776  0.94618805  0.00000000
Direct configuration=   195
   0.94729294  0.93085051  0.00000000
   0.91978552  0.76948166  0.00000000
   0.11846137  0.94259978  0.00000000
Direct configuration=   196
   0.94692706  0.93072730  0.00000000
   0.92127024  0.76805703  0.00000000
   0.11772867  0.93883527  0.00000000
Direct configuration=   197
   0.94663710  0.93054788  0.00000000
   0.92294627  0.76762894  0.00000000
   0.11559140  0.93497314  0.00000000
Direct configuration=   198
   0.94641981  0.93030721  0.00000000
   0.92474306  0.76819020  0.00000000
   0.11217186  0.93110131  0.00000000
Direct configuration=   199
   0.94626704  0.93000452  0.00000000
   0.92657137  0.76965918  0.00000000
   0.10768984  0.92731345  0.00000000
Direct configuration=   200
   0.94616421  0.92964386  0.00000000
   0.92832342  0.77187424  0.00000000
   0.10248697  0.92370530  0.00000000
Direct configuration=   201
   0.94608867  0.92923512  0.00000000
   0.92987351  0.77458609  0.00000000
   0.09705078  0.92036805  0.00000000
Direct configuration=   202
   0.94600934  0.92879478  0.00000000
   0.93108115  0.77745600  0.00000000
   0.09201867  0.91737681  0.00000000
Direct configuration=   203
   0.94588963  0.92834567  0.00000000
   0.93180011  0.78007101  0.00000000
   0.08812338  0.91477971  0.00000000
Direct configuration=   204
   0.94569642  0.92791387  0.00000000
   0.93189440  0.78199416  0.00000000
   0.08603017  0.91259621  0.00000000
Direct configuration=   205
   0.94541314  0.92752246  0.00000000
   0.93126017  0.78285171  0.00000000
   0.08610753  0.91083130  0.00000000
Direct configuration=   206
   0.94504845  0.92718358  0.00000000
   0.92984899  0.78244122  0.00000000
   0.08826498  0.90949379  0.00000000
Direct configuration=   207
   0.94463254  0.92689368  0.00000000
   0.92768123  0.78080234  0.00000000
   0.09199958  0.90859853  0.00000000
Direct configuration=   208
   0.94420391  0.92663564  0.00000000
   0.92484129  0.77820119  0.00000000
   0.09661040  0.90815261  0.00000000
Direct configuration=   209
   0.94379766  0.92638504  0.00000000
   0.92146018  0.77504157  0.00000000
   0.10140521  0.90814322  0.00000000
Direct configuration=   210
   0.94343964  0.92611667  0.00000000
   0.91769303  0.77176192  0.00000000