Pt(111)                                 
           1
    10.547600    0.000000    0.000000
    -5.273800    9.134489    0.000000
     0.000000    0.000000   18.459000
   Pd   Cu   C    O    H 
  16  48   1   2   1
Direct configuration=     1
   0.33328094  0.16662104  0.00025874
   0.16681091  0.33311012  0.11564954
   0.00007253  0.99997400  0.22880143
   0.33391764  0.16822828  0.34446762
   0.83342650  0.16655647  0.99928265
   0.66692766  0.33311307  0.11631678
   0.49978001  0.00000873  0.22926663
   0.83329689  0.16687208  0.34507810
   0.33345177  0.66670684  0.99987660
   0.16667354  0.83354479  0.11701933
   0.99986201  0.50025925  0.22912434
   0.33299604  0.66708335  0.34616780
   0.83337857  0.66674865  0.00027101
   0.66700997  0.83329032  0.11571772
   0.50005918  0.50001458  0.22867620
   0.83161282  0.66611733  0.34458295
   0.33799217  0.41934988  0.00297043
   0.16832594  0.08405629  0.11614210
   0.99870110  0.24939244  0.22878836
   0.32958568  0.41564688  0.34080871
   0.08145829  0.41898422  0.00293904
   0.41597957  0.08390910  0.11622816
   0.25040302  0.24930436  0.22871630
   0.08484605  0.41355208  0.34145055
   0.08114235  0.16200593  0.00293545
   0.41619555  0.33186338  0.11593132
   0.25095756  0.00087816  0.22982917
   0.08543620  0.17139770  0.34176679
   0.83837652  0.41914369  0.00357881
   0.66852385  0.08385675  0.11593413
   0.49890282  0.24918362  0.22916807
   0.82918769  0.41481524  0.34195740
   0.58144169  0.41865004  0.00327736
   0.91619935  0.08384534  0.11568453
   0.75095996  0.24903191  0.22916366
   0.58557430  0.41461656  0.34199220
   0.58088543  0.16165058  0.00357177
   0.91623238  0.33149544  0.11584555
   0.75070077  0.00130786  0.22888173
   0.58533390  0.17098862  0.34193996
   0.33735741  0.91841874  0.00349024
   0.16785520  0.58354567  0.11599654
   0.99915611  0.74912274  0.22985433
   0.32826777  0.91551257  0.34388183
   0.08141647  0.91865921  0.00377987
   0.41608784  0.58408200  0.11570315
   0.25138392  0.74848725  0.22865744
   0.08320880  0.91670445  0.34192342
   0.08166550  0.66273873  0.00358168
   0.41650514  0.83222129  0.11600208
   0.25090182  0.50126814  0.22874057
   0.08416906  0.67137846  0.34394600
   0.83802569  0.91885873  0.00293737
   0.66828702  0.58396669  0.11595631
   0.49886924  0.74911454  0.22883482
   0.82860267  0.91439040  0.34182254
   0.58105903  0.91860163  0.00297941
   0.91612039  0.58421825  0.11616048
   0.75078266  0.74962774  0.22876056
   0.58651838  0.91513798  0.34170606
   0.58076867  0.66207625  0.00300036
   0.91603603  0.83172417  0.11614276
   0.75086893  0.50113755  0.22918925
   0.58432690  0.67043319  0.34108490
   0.33591511  0.53817624  0.52215279
   0.34680475  0.65451399  0.52664602
   0.32506909  0.42175365  0.51794786
   0.49886924  0.74911454  0.39360218
Direct configuration=     2
   0.33328094  0.16662104  0.00025874
   0.16681091  0.33311012  0.11564954
   0.00003561  0.99997702  0.22879659
   0.33390886  0.16820927  0.34449704
   0.83342650  0.16655647  0.99928265
   0.66692766  0.33311307  0.11631678
   0.49980280  0.00001094  0.22926274
   0.83330375  0.16688253  0.34504774
   0.33345177  0.66670684  0.99987660
   0.16667354  0.83354479  0.11701933
   0.99997321  0.50029974  0.22914378
   0.33278286  0.66701617  0.34613052
   0.83337857  0.66674865  0.00027101
   0.66700997  0.83329032  0.11571772
   0.50012290  0.49997327  0.22865249
   0.83164991  0.66612029  0.34458523
   0.33799217  0.41934988  0.00297043
   0.16832594  0.08405629  0.11614210
   0.99870306  0.24937788  0.22878437
   0.32952317  0.41554111  0.34082197
   0.08145829  0.41898422  0.00293904
   0.41597957  0.08390910  0.11622816
   0.25042874  0.24932254  0.22871817
   0.08488032  0.41364816  0.34143594
   0.08114235  0.16200593  0.00293545
   0.41619555  0.33186338  0.11593132
   0.25095602  0.00088038  0.22983016
   0.08542749  0.17139622  0.34176427
   0.83837652  0.41914369  0.00357881
   0.66852385  0.08385675  0.11593413
   0.49890108  0.24920150  0.22916189
   0.82916955  0.41479914  0.34196684
   0.58144169  0.41865004  0.00327736
   0.91619935  0.08384534  0.11568453
   0.75095048  0.24901631  0.22916857
   0.58557079  0.41462392  0.34197839
   0.58088543  0.16165058  0.00357177
   0.91623238  0.33149544  0.11584555
   0.75069160  0.00131158  0.22889098
   0.58534734  0.17099413  0.34194089
   0.33735741  0.91841874  0.00349024
   0.16785520  0.58354567  0.11599654
   0.99916033  0.74914759  0.22984909
   0.32824377  0.91551757  0.34380645
   0.08141647  0.91865921  0.00377987
   0.41608784  0.58408200  0.11570315
   0.25131988  0.74849190  0.22872712
   0.08328075  0.91662498  0.34195008
   0.08166550  0.66273873  0.00358168
   0.41650514  0.83222129  0.11600208
   0.25083837  0.50126487  0.22873613
   0.08420312  0.67134791  0.34385110
   0.83802569  0.91885873  0.00293737
   0.66828702  0.58396669  0.11595631
   0.49880749  0.74911680  0.22875753
   0.82874688  0.91447151  0.34179528
   0.58105903  0.91860163  0.00297941
   0.91612039  0.58421825  0.11616048
   0.75075772  0.74959685  0.22876952
   0.58643555  0.91505702  0.34180196
   0.58076867  0.66207625  0.00300036
   0.91603603  0.83172417  0.11614276
   0.75083929  0.50114237  0.22918547
   0.58434592  0.67048909  0.34119563
   0.33591350  0.53820437  0.52215670
   0.34676450  0.65446798  0.52667296
   0.32508066  0.42175465  0.51794347
   0.49913673  0.74925578  0.39359085
Direct configuration=     3
   0.33328094  0.16662104  0.00025874
   0.16681091  0.33311012  0.11564954
  -0.00007514  0.99998609  0.22878207
   0.33388251  0.16815224  0.34458530
   0.83342650  0.16655647  0.99928265
   0.66692766  0.33311307  0.11631678
   0.49987116  0.00001757  0.22925106
   0.83332432  0.16691387  0.34495666
   0.33345177  0.66670684  0.99987660
   0.16667354  0.83354479  0.11701933
   0.00030683  0.50042120  0.22920207
   0.33214333  0.66681462  0.34601869
   0.83337857  0.66674865  0.00027101
   0.66700997  0.83329032  0.11571772
   0.50031406  0.49984933  0.22858137
   0.83176120  0.66612916  0.34459207
   0.33799217  0.41934988  0.00297043
   0.16832594  0.08405629  0.11614210
   0.99870895  0.24933421  0.22877240
   0.32933561  0.41522382  0.34086175
   0.08145829  0.41898422  0.00293904
   0.41597957  0.08390910  0.11622816
   0.25050589  0.24937707  0.22872377
   0.08498313  0.41393639  0.34139213
   0.08114235  0.16200593  0.00293545
   0.41619555  0.33186338  0.11593132
   0.25095141  0.00088705  0.22983311
   0.08540135  0.17139180  0.34175672
   0.83837652  0.41914369  0.00357881
   0.66852385  0.08385675  0.11593413
   0.49889585  0.24925514  0.22914333
   0.82911512  0.41475084  0.34199515
   0.58144169  0.41865004  0.00327736
   0.91619935  0.08384534  0.11568453
   0.75092204  0.24896952  0.22918332
   0.58556027  0.41464602  0.34193696
   0.58088543  0.16165058  0.00357177
   0.91623238  0.33149544  0.11584555
   0.75066410  0.00132273  0.22891875
   0.58538767  0.17101066  0.34194368
   0.33735741  0.91841874  0.00349024
   0.16785520  0.58354567  0.11599654
   0.99917297  0.74922213  0.22983337
   0.32817177  0.91553256  0.34358033
   0.08141647  0.91865921  0.00377987
   0.41608784  0.58408200  0.11570315
   0.25112777  0.74850585  0.22893618
   0.08349662  0.91638658  0.34203005
   0.08166550  0.66273873  0.00358168
   0.41650514  0.83222129  0.11600208
   0.25064801  0.50125505  0.22872284
   0.08430528  0.67125625  0.34356639
   0.83802569  0.91885873  0.00293737
   0.66828702  0.58396669  0.11595631
   0.49862221  0.74912358  0.22852567
   0.82917951  0.91471482  0.34171349
   0.58105903  0.91860163  0.00297941
   0.91612039  0.58421825  0.11616048
   0.75068293  0.74950418  0.22879643
   0.58618705  0.91481413  0.34208968
   0.58076867  0.66207625  0.00300036
   0.91603603  0.83172417  0.11614276
   0.75075038  0.50115684  0.22917413
   0.58440297  0.67065678  0.34152781
   0.33590869  0.53828875  0.52216842
   0.34664376  0.65432994  0.52675377
   0.32511537  0.42175765  0.51793032
   0.49993920  0.74967947  0.39355688
