 vasp.5.4.4.18Apr17-6-g9f103f2a35 (build Apr 07 2018 02:38:49) complex          
  
 executed on             LinuxIFC date 2018.08.06  16:27:30
 running on   16 total cores
 distrk:  each k-point on   16 cores,    1 groups
 distr:  one band on NCORES_PER_BAND=   4 cores,    4 groups


--------------------------------------------------------------------------------------------------------


 INCAR:
 POTCAR:    PAW_PBE Pd 05Jan2001                  
 POTCAR:   PAW_PBE Cu 05Jan2001                   
 POTCAR:   PAW_PBE C 08Apr2002                    
 POTCAR:   PAW_PBE O 08Apr2002                    
 POTCAR:   PAW_PBE H 15Jun2001                    
 POTCAR:    PAW_PBE Pd 05Jan2001                  
  local pseudopotential read in
  partial core-charges read in
  atomic valenz-charges read in
  non local Contribution for L=           2  read in
    real space projection operators read in
  non local Contribution for L=           2  read in
    real space projection operators read in
  non local Contribution for L=           0  read in
    real space projection operators read in
  non local Contribution for L=           0  read in
    real space projection operators read in
  non local Contribution for L=           1  read in
    real space projection operators read in
  non local Contribution for L=           1  read in
    real space projection operators read in
    PAW grid and wavefunctions read in
 
   number of l-projection  operators is LMAX  =           6
   number of lm-projection operators is LMMAX =          18
 
 POTCAR:   PAW_PBE Cu 05Jan2001                   
  local pseudopotential read in
  partial core-charges read in
  atomic valenz-charges read in
  non local Contribution for L=           2  read in
    real space projection operators read in
  non local Contribution for L=           2  read in
    real space projection operators read in
  non local Contribution for L=           0  read in
    real space projection operators read in
  non local Contribution for L=           0  read in
    real space projection operators read in
  non local Contribution for L=           1  read in
    real space projection operators read in
  non local Contribution for L=           1  read in
    real space projection operators read in
    PAW grid and wavefunctions read in
 
   number of l-projection  operators is LMAX  =           6
   number of lm-projection operators is LMMAX =          18
 
 POTCAR:   PAW_PBE C 08Apr2002                    
  local pseudopotential read in
  atomic valenz-charges read in
  non local Contribution for L=           0  read in
    real space projection operators read in
  non local Contribution for L=           0  read in
    real space projection operators read in
  non local Contribution for L=           1  read in
    real space projection operators read in
  non local Contribution for L=           1  read in
    real space projection operators read in
    PAW grid and wavefunctions read in
 
   number of l-projection  operators is LMAX  =           4
   number of lm-projection operators is LMMAX =           8
 
 POTCAR:   PAW_PBE O 08Apr2002                    
  local pseudopotential read in
  atomic valenz-charges read in
  non local Contribution for L=           0  read in
    real space projection operators read in
  non local Contribution for L=           0  read in
    real space projection operators read in
  non local Contribution for L=           1  read in
    real space projection operators read in
  non local Contribution for L=           1  read in
    real space projection operators read in
    PAW grid and wavefunctions read in
 
   number of l-projection  operators is LMAX  =           4
   number of lm-projection operators is LMMAX =           8
 
 POTCAR:   PAW_PBE H 15Jun2001                    
  local pseudopotential read in
  atomic valenz-charges read in
  non local Contribution for L=           0  read in
    real space projection operators read in
  non local Contribution for L=           0  read in
    real space projection operators read in
  non local Contribution for L=           1  read in
    real space projection operators read in
    PAW grid and wavefunctions read in
 
   number of l-projection  operators is LMAX  =           3
   number of lm-projection operators is LMMAX =           5
 
 Optimization of the real space projectors (new method)

 maximal supplied QI-value         = 15.68
 optimisation between [QCUT,QGAM] = [ 10.20, 20.39] = [ 29.11,116.42] Ry 
 Optimized for a Real-space Cutoff    1.42 Angstroem

   l    n(q)    QCUT    max X(q) W(low)/X(q) W(high)/X(q)  e(spline) 
   2      8    10.195   101.602    0.18E-03    0.91E-03    0.17E-06
   2      8    10.195    98.740    0.18E-03    0.92E-03    0.18E-06
   0      9    10.195    87.032    0.39E-03    0.13E-03    0.67E-07
   0      9    10.195    48.600    0.36E-03    0.13E-03    0.63E-07
   1      8    10.195    23.203    0.16E-03    0.29E-03    0.15E-06
   1      8    10.195    17.999    0.13E-03    0.23E-03    0.13E-06
 Optimization of the real space projectors (new method)

 maximal supplied QI-value         = 16.25
 optimisation between [QCUT,QGAM] = [ 10.24, 20.48] = [ 29.35,117.42] Ry 
 Optimized for a Real-space Cutoff    1.38 Angstroem

   l    n(q)    QCUT    max X(q) W(low)/X(q) W(high)/X(q)  e(spline) 
   2      7    10.239     4.977    0.17E-04    0.72E-04    0.37E-07
   2      7    10.239    13.467    0.37E-03    0.57E-03    0.11E-06
   0      8    10.239    13.303    0.21E-04    0.11E-04    0.72E-08
   0      8    10.239    44.613    0.32E-03    0.63E-04    0.89E-07
   1      8    10.239     5.276    0.12E-03    0.12E-03    0.14E-07
   1      8    10.239     7.322    0.38E-03    0.54E-03    0.12E-06
 Optimization of the real space projectors (new method)

 maximal supplied QI-value         = 25.13
 optimisation between [QCUT,QGAM] = [ 10.05, 20.36] = [ 28.30,116.06] Ry 
 Optimized for a Real-space Cutoff    1.30 Angstroem

   l    n(q)    QCUT    max X(q) W(low)/X(q) W(high)/X(q)  e(spline) 
   0      8    10.053     5.582    0.43E-04    0.44E-04    0.61E-07
   0      8    10.053    69.432    0.49E-03    0.71E-03    0.18E-06
   1      7    10.053     2.780    0.78E-04    0.13E-03    0.11E-06
   1      7    10.053     4.549    0.23E-03    0.19E-03    0.20E-06
 Optimization of the real space projectors (new method)

 maximal supplied QI-value         = 24.76
 optimisation between [QCUT,QGAM] = [ 10.15, 20.30] = [ 28.85,115.39] Ry 
 Optimized for a Real-space Cutoff    1.30 Angstroem

   l    n(q)    QCUT    max X(q) W(low)/X(q) W(high)/X(q)  e(spline) 
   0      8    10.150     4.192    0.55E-04    0.58E-04    0.78E-07
   0      8    10.150     8.473    0.46E-03    0.68E-03    0.23E-06
   1      7    10.150     2.474    0.11E-03    0.93E-04    0.33E-07
   1      7    10.150     3.912    0.46E-03    0.50E-03    0.15E-06
 Optimization of the real space projectors (new method)

 maximal supplied QI-value         = 34.20
 optimisation between [QCUT,QGAM] = [  9.92, 20.18] = [ 27.55,114.04] Ry 
 Optimized for a Real-space Cutoff    1.26 Angstroem

   l    n(q)    QCUT    max X(q) W(low)/X(q) W(high)/X(q)  e(spline) 
   0      8     9.919     4.436    0.80E-04    0.66E-04    0.52E-07
   0      8     9.919    16.131    0.48E-03    0.23E-03    0.28E-06
   1      7     9.919     4.654    0.17E-03    0.75E-03    0.30E-06
  PAW_PBE Pd 05Jan2001                  :
 energy of atom  1       EATOM= -809.7532
 kinetic energy error for atom=    0.0091 (will be added to EATOM!!)
 PAW_PBE Cu 05Jan2001                   :
 energy of atom  2       EATOM=-1390.9800
 kinetic energy error for atom=    0.0117 (will be added to EATOM!!)
 PAW_PBE C 08Apr2002                    :
 energy of atom  3       EATOM= -147.1560
 kinetic energy error for atom=    0.0288 (will be added to EATOM!!)
 PAW_PBE O 08Apr2002                    :
 energy of atom  4       EATOM= -432.3788
 kinetic energy error for atom=    0.1156 (will be added to EATOM!!)
 PAW_PBE H 15Jun2001                    :
 energy of atom  5       EATOM=  -12.4884
 kinetic energy error for atom=    0.0098 (will be added to EATOM!!)
 
 
 POSCAR: CONTCAR\(3)                             
  positions in cartesian coordinates
  No initial velocities read in
 exchange correlation table for  LEXCH =        8
   RHO(1)=    0.500       N(1)  =     2000
   RHO(2)=  100.500       N(2)  =     4000

 VTST: version 3.1, (03/28/14)

 CHAIN: initializing optimizer
 
 OPT: Using VASP Conjugate-Gradient optimizer
 CHAIN: Read ICHAIN            0
 
 POSCAR: CONTCAR\(3)                             
  positions in cartesian coordinates
  No initial velocities read in
 


--------------------------------------------------------------------------------------------------------


 ion  position               nearest neighbor table
   1  0.333  0.167  0.000-  26 2.61  18 2.62  22 2.62  25 2.64  45 2.64  33 2.64  37 2.64  41 2.64
                            17 2.64
   2  0.167  0.333  0.116-  23 2.59  51 2.59  19 2.59  17 2.60  25 2.60  21 2.60  38 2.63  18 2.63
                            42 2.64  34 2.64  26 2.64  46 2.64
   3  0.000  1.000  0.229-  48 2.58  62 2.59  18 2.59  34 2.59  28 2.61  56 2.61  59 2.63  23 2.64
                            39 2.64  19 2.64  43 2.64  27 2.64
   4  0.334  0.168  0.344-  31 2.61  27 2.61  23 2.61  36 2.63  20 2.63  44 2.64  40 2.64  28 2.64
                            48 2.65
   5  0.833  0.167  0.999-  38 2.63  34 2.63  30 2.63  25 2.64  53 2.64  37 2.64  29 2.64  57 2.64
                            21 2.64
   6  0.667  0.333  0.116-  31 2.59  63 2.59  35 2.59  29 2.60  37 2.60  33 2.61  30 2.64  22 2.64
                            26 2.64  38 2.64  58 2.64  54 2.64
   7  0.500  0.000  0.229-  22 2.59  50 2.59  30 2.60  40 2.60  60 2.60  27 2.63  44 2.63  31 2.63
                            47 2.64  35 2.64  39 2.64  55 2.64
   8  0.833  0.167  0.345-  35 2.61  39 2.62  19 2.63  24 2.63  60 2.63  28 2.64  32 2.64  40 2.64
                            56 2.64
   9  0.333  0.667  1.000-  46 2.62  50 2.62  42 2.62  17 2.63  61 2.63  57 2.64  41 2.64  49 2.64
                            21 2.64
  10  0.167  0.834  0.117-  47 2.58  27 2.58  43 2.58  45 2.61  49 2.61  41 2.61  18 2.63  62 2.63
                            22 2.64  58 2.64  50 2.64  42 2.64
  11  1.000  0.500  0.229-  58 2.59  42 2.59  38 2.60  24 2.60  32 2.60  43 2.63  63 2.63  52 2.63
                            47 2.64  35 2.64  19 2.64  51 2.64
  12  0.333  0.667  0.346-  68 1.75  47 2.63  64 2.64  20 2.64  55 2.64  51 2.64  44 2.65  60 2.65
                            24 2.65  52 2.65
  13  0.833  0.667  0.000-  54 2.61  62 2.62  58 2.62  53 2.64  45 2.64  33 2.64  29 2.64  61 2.64
                            49 2.64
  14  0.667  0.833  0.116-  59 2.59  55 2.59  39 2.59  53 2.60  61 2.60  57 2.60  30 2.63  62 2.63
                            34 2.64  54 2.64  50 2.64  46 2.64
  15  0.500  0.500  0.229-  26 2.59  54 2.59  46 2.59  20 2.59  64 2.59  36 2.61  55 2.63  51 2.63
                            59 2.64  23 2.64  63 2.64  31 2.64
  16  0.832  0.666  0.345-  63 2.61  59 2.61  43 2.61  36 2.62  64 2.63  56 2.64  52 2.64  32 2.64
                            48 2.65
  17  0.338  0.419  0.003-  61 2.56  46 2.57  33 2.57  26 2.58   2 2.60   9 2.63   1 2.64  21 2.70
                            25 2.71
  18  0.168  0.084  0.116-  45 2.57  23 2.57  25 2.58   3 2.59  27 2.59  22 2.61  26 2.61   1 2.62
                            10 2.63   2 2.63  34 2.66  62 2.66
  19  0.999  0.249  0.229-  24 2.56  38 2.57  28 2.57  34 2.58   2 2.59  35 2.61  39 2.62   8 2.63
                             3 2.64  11 2.64  23 2.66  51 2.66
  20  0.330  0.416  0.341-  51 2.56  23 2.57  24 2.57  28 2.58  15 2.59   4 2.63  12 2.64  64 2.69
                            36 2.71
  21  0.081  0.419  0.003-  29 2.56  49 2.57  42 2.57  38 2.57   2 2.60   9 2.64   5 2.64  17 2.70
                            25 2.71
  22  0.416  0.084  0.116-  37 2.57  41 2.57  31 2.57  27 2.58   7 2.59  18 2.61  26 2.61   1 2.62
                            10 2.64   6 2.64  50 2.66  30 2.66
  23  0.250  0.249  0.229-  20 2.57  18 2.57  28 2.57  26 2.57   2 2.59   4 2.61  31 2.62  27 2.62
                             3 2.64  15 2.64  51 2.65  19 2.66
  24  0.085  0.414  0.341-  28 2.56  19 2.56  20 2.57  51 2.58  11 2.60   8 2.63  12 2.65  32 2.70
                            52 2.72
  25  0.081  0.162  0.003-  53 2.56  45 2.57  34 2.57  18 2.58   2 2.60   1 2.64   5 2.64  21 2.71
                            17 2.71
  26  0.416  0.332  0.116-  33 2.57  23 2.57  17 2.58  31 2.58  15 2.59  18 2.61  22 2.61   1 2.61
                             2 2.64   6 2.64  54 2.66  46 2.66
  27  0.251  0.001  0.230-  48 2.57  44 2.58  22 2.58  10 2.58  18 2.59   4 2.61  31 2.62  23 2.62
                             7 2.63   3 2.64  43 2.66  47 2.66
  28  0.085  0.171  0.342-  24 2.56  19 2.57  23 2.57  20 2.58   3 2.61   8 2.64   4 2.64  48 2.67
                            56 2.71
  29  0.838  0.419  0.004-  21 2.56  38 2.57  49 2.57  58 2.57   6 2.60  13 2.64   5 2.64  33 2.71
                            37 2.72
  30  0.669  0.084  0.116-  37 2.57  39 2.57  57 2.57  35 2.58   7 2.60  38 2.61  34 2.61   5 2.63
                            14 2.63   6 2.64  50 2.66  22 2.66
  31  0.499  0.249  0.229-  40 2.57  36 2.57  22 2.57  26 2.58   6 2.59   4 2.61  27 2.62  23 2.62
                             7 2.63  15 2.64  63 2.66  35 2.66
  32  0.829  0.415  0.342-  63 2.57  36 2.57  40 2.57  35 2.58  11 2.60   8 2.64  16 2.64  52 2.70
                            24 2.70
  33  0.581  0.419  0.003-  26 2.57  54 2.57  61 2.57  17 2.57   6 2.61  13 2.64   1 2.64  29 2.71
                            37 2.71
  34  0.916  0.084  0.116-  25 2.57  53 2.57  19 2.58  39 2.58   3 2.59  38 2.61  30 2.61   5 2.63
                            14 2.64   2 2.64  18 2.66  62 2.66
  35  0.751  0.249  0.229-  40 2.57  32 2.58  30 2.58  38 2.58   6 2.59  19 2.61  39 2.61   8 2.61
                            11 2.64   7 2.64  31 2.66  63 2.66
  36  0.586  0.415  0.342-  40 2.57  32 2.57  63 2.57  31 2.57  15 2.61  16 2.62   4 2.63  64 2.70
                            20 2.71
  37  0.581  0.162  0.004-  57 2.56  30 2.57  41 2.57  22 2.57   6 2.60   1 2.64   5 2.64  33 2.71
                            29 2.72
  38  0.916  0.331  0.116-  29 2.57  19 2.57  21 2.57  35 2.58  11 2.60  34 2.61  30 2.61   5 2.63
                             2 2.63   6 2.64  42 2.66  58 2.67
  39  0.751  0.001  0.229-  60 2.57  30 2.57  56 2.57  34 2.58  14 2.59  35 2.61  19 2.62   8 2.62
                             3 2.64   7 2.64  59 2.66  55 2.66
  40  0.585  0.171  0.342-  31 2.57  36 2.57  32 2.57  35 2.57   7 2.60   4 2.64   8 2.64  44 2.70
                            60 2.70
  41  0.337  0.918  0.003-  37 2.57  50 2.57  57 2.57  22 2.57  10 2.61   9 2.64   1 2.64  49 2.70
                            45 2.70
  42  0.168  0.584  0.116-  49 2.57  47 2.57  51 2.57  21 2.57  11 2.59  46 2.62  50 2.62   9 2.62
                             2 2.64  10 2.64  38 2.66  58 2.66
  43  0.999  0.749  0.230-  48 2.57  52 2.58  58 2.58  10 2.58  62 2.59  16 2.61  63 2.62  59 2.62
                            11 2.63   3 2.64  27 2.66  47 2.66
  44  0.328  0.916  0.344-  52 2.57  27 2.58  48 2.59  47 2.62   7 2.63   4 2.64  12 2.65  40 2.70
                            60 2.73
  45  0.081  0.919  0.004-  62 2.57  18 2.57  25 2.57  53 2.57  10 2.61   1 2.64  13 2.64  49 2.70
                            41 2.70
  46  0.416  0.584  0.116-  61 2.57  17 2.57  51 2.57  55 2.58  15 2.59  50 2.62  42 2.62   9 2.62
                            14 2.64   2 2.64  54 2.66  26 2.66
  47  0.251  0.748  0.229-  42 2.57  50 2.57  10 2.58  51 2.61  55 2.61  44 2.62  52 2.62  12 2.63
                            11 2.64   7 2.64  43 2.66  27 2.66
  48  0.083  0.917  0.342-  43 2.57  27 2.57   3 2.58  44 2.59  52 2.59  16 2.65   4 2.65  56 2.67
                            28 2.67
  49  0.082  0.663  0.004-  42 2.57  29 2.57  21 2.57  58 2.57  10 2.61   9 2.64  13 2.64  41 2.70
                            45 2.70
  50  0.417  0.832  0.116-  41 2.57  47 2.57  57 2.57  55 2.57   7 2.59  46 2.62  42 2.62   9 2.62
                            14 2.64  10 2.64  30 2.66  22 2.66
  51  0.251  0.501  0.229-  20 2.56  42 2.57  46 2.57  24 2.58   2 2.59  47 2.61  55 2.61  15 2.63
                            11 2.64  12 2.64  23 2.65  19 2.66
  52  0.084  0.671  0.344-  44 2.57  43 2.58  48 2.59  47 2.62  11 2.63  16 2.64  12 2.65  32 2.70
                            24 2.72
  53  0.838  0.919  0.003-  25 2.56  45 2.57  34 2.57  62 2.58  14 2.60  13 2.64   5 2.64  57 2.71
                            61 2.71
  54  0.668  0.584  0.116-  33 2.57  59 2.57  61 2.58  63 2.58  15 2.59  58 2.61  62 2.61  13 2.61
                            14 2.64   6 2.64  26 2.66  46 2.66
  55  0.499  0.749  0.229-  64 2.56  50 2.57  46 2.58  60 2.58  14 2.59  47 2.61  51 2.61  15 2.63
                             7 2.64  12 2.64  59 2.65  39 2.66
  56  0.829  0.914  0.342-  60 2.56  39 2.57  59 2.57  64 2.57   3 2.61  16 2.64   8 2.64  48 2.67
                            28 2.71
  57  0.581  0.919  0.003-  37 2.56  41 2.57  50 2.57  30 2.57  14 2.60   9 2.64   5 2.64  61 2.70
                            53 2.71
  58  0.916  0.584  0.116-  29 2.57  49 2.57  63 2.58  43 2.58  11 2.59  62 2.61  54 2.61  13 2.62
                            10 2.64   6 2.64  42 2.66  38 2.67
  59  0.751  0.750  0.229-  62 2.57  64 2.57  56 2.57  54 2.57  14 2.59  16 2.61  63 2.62  43 2.62
                             3 2.63  15 2.64  55 2.65  39 2.66
  60  0.587  0.915  0.342-  68 1.79  56 2.56  39 2.57  64 2.57  55 2.58   7 2.60   8 2.63  12 2.65
                            40 2.70  44 2.73
  61  0.581  0.662  0.003-  17 2.56  46 2.57  33 2.57  54 2.58  14 2.60   9 2.63  13 2.64  57 2.70
                            53 2.71
  62  0.916  0.832  0.116-  45 2.57  59 2.57  53 2.58   3 2.59  43 2.59  58 2.61  54 2.61  13 2.62
                            10 2.63  14 2.63  34 2.66  18 2.66
  63  0.751  0.501  0.229-  32 2.57  36 2.57  58 2.58  54 2.58   6 2.59  16 2.61  43 2.62  59 2.62
                            11 2.63  15 2.64  31 2.66  35 2.66
  64  0.584  0.670  0.341-  68 1.79  55 2.56  60 2.57  59 2.57  56 2.57  15 2.59  16 2.63  12 2.64
                            20 2.69  36 2.70
  65  0.336  0.538  0.522-  66 1.18  67 1.18
  66  0.347  0.655  0.527-  65 1.18
  67  0.325  0.422  0.518-  65 1.18
  68  0.499  0.749  0.394-  12 1.75  64 1.79  60 1.79
 
  LATTYP: Found a hexagonal cell.
 ALAT       =    10.5475997925
 C/A-ratio  =     1.7500663655
  
  Lattice vectors:
  
 A1 = (  10.5475997925,   0.0000000000,   0.0000000000)
 A2 = (  -5.2737998962,   9.1344893692,   0.0000000000)
 A3 = (   0.0000000000,   0.0000000000,  18.4589996338)


Analysis of symmetry for initial positions (statically):
=====================================================================
 Subroutine PRICEL returns:
 Original cell was already a primitive cell.
 

 Routine SETGRP: Setting up the symmetry group for a 
 hexagonal supercell.


 Subroutine GETGRP returns: Found  1 space group operations
 (whereof  1 operations were pure point group operations)
 out of a pool of 24 trial point group operations.


The static configuration has the point symmetry C_1 .


Analysis of symmetry for dynamics (positions and initial velocities):
=====================================================================
 Subroutine PRICEL returns:
 Original cell was already a primitive cell.
 

 Routine SETGRP: Setting up the symmetry group for a 
 hexagonal supercell.


 Subroutine GETGRP returns: Found  1 space group operations
 (whereof  1 operations were pure point group operations)
 out of a pool of 24 trial point group operations.


The dynamic configuration has the point symmetry C_1 .


Analysis of constrained symmetry for selective dynamics:
=====================================================================
 Subroutine PRICEL returns:
 Original cell was already a primitive cell.
 

 Routine SETGRP: Setting up the symmetry group for a 
 hexagonal supercell.


 Subroutine GETGRP returns: Found  1 space group operations
 (whereof  1 operations were pure point group operations)
 out of a pool of 24 trial point group operations.


The constrained configuration has the point symmetry C_1 .


 Subroutine INISYM returns: Found  1 space group operations
 (whereof  1 operations are pure point group operations),
 and found     1 'primitive' translations

 
 
 KPOINTS: K-POINTS                                

Automatic generation of k-mesh.
Space group operators:
 irot       det(A)        alpha          n_x          n_y          n_z        tau_x        tau_y        tau_z
    1     1.000000     0.000000     1.000000     0.000000     0.000000     0.000000     0.000000     0.000000
 
 Subroutine IBZKPT returns following result:
 ===========================================
 
 Found      6 irreducible k-points:
 
 Following reciprocal coordinates:
            Coordinates               Weight
  0.250000  0.250000  0.000000     16.000000
  0.500000 -0.250000  0.000000     16.000000
  0.250000  0.500000  0.000000     16.000000
 -0.250000  0.250000  0.000000     16.000000
  0.000000  0.250000  0.000000     16.000000
  0.250000  0.000000  0.000000     16.000000
 
 Following cartesian coordinates:
            Coordinates               Weight
  0.023702  0.041053  0.000000     16.000000
  0.047404 -0.000000  0.000000     16.000000
  0.023702  0.068422  0.000000     16.000000
 -0.023702  0.013684  0.000000     16.000000
  0.000000  0.027369  0.000000     16.000000
  0.023702  0.013684  0.000000     16.000000
 


--------------------------------------------------------------------------------------------------------




 Dimension of arrays:
   k-points           NKPTS =      6   k-points in BZ     NKDIM =      6   number of bands    NBANDS=    424
   number of dos      NEDOS =    301   number of ions     NIONS =     68
   non local maximal  LDIM  =      6   non local SUM 2l+1 LMDIM =     18
   total plane-waves  NPLWV = 262440
   max r-space proj   IRMAX =   1827   max aug-charges    IRDMAX=   7357
   dimension x,y,z NGX =    54 NGY =   54 NGZ =   90
   dimension x,y,z NGXF=   108 NGYF=  108 NGZF=  180
   support grid    NGXF=   108 NGYF=  108 NGZF=  180
   ions per type =              16  48   1   2   1
   NGX,Y,Z   is equivalent  to a cutoff of   8.51,  8.51,  8.11 a.u.
   NGXF,Y,Z  is equivalent  to a cutoff of  17.02, 17.02, 16.21 a.u.

 SYSTEM =  Pt(111)                                 
 POSCAR =  CONTCAR\(3)                             

 Startparameter for this run:
   NWRITE =      0    write-flag & timer
   PREC   = n         normal or accurate (medium, high low for compatibility)
   ISTART =      0    job   : 0-new  1-cont  2-samecut
   ICHARG =      2    charge: 1-file 2-atom 10-const
   ISPIN  =      1    spin polarized calculation?
   LNONCOLLINEAR =      F non collinear calculations
   LSORBIT =      F    spin-orbit coupling
   INIWAV =      1    electr: 0-lowe 1-rand  2-diag
   LASPH  =      F    aspherical Exc in radial PAW
   METAGGA=      F    non-selfconsistent MetaGGA calc.

 Electronic Relaxation 1
   ENCUT  =  400.0 eV  29.40 Ry    5.42 a.u.  17.20 17.20 30.10*2*pi/ulx,y,z
   ENINI  =  400.0     initial cutoff
   ENAUG  =  644.9 eV  augmentation charge cutoff
   NELM   =    100;   NELMIN=  2; NELMDL= -5     # of ELM steps 
   EDIFF  = 0.1E-05   stopping-criterion for ELM
   LREAL  =      T    real-space projection
   NLSPLINE    = F    spline interpolate recip. space projectors
   LCOMPAT=      F    compatible to vasp.4.4
   GGA_COMPAT  = T    GGA compatible to vasp.4.4-vasp.4.6
   LMAXPAW     = -100 max onsite density
   LMAXMIX     =    2 max onsite mixed and CHGCAR
   VOSKOWN=      0    Vosko Wilk Nusair interpolation
   ROPT   =   -0.00050  -0.00050  -0.00050  -0.00050
   ROPT   =   -0.00050
 Ionic relaxation
   EDIFFG = -.3E-01   stopping-criterion for IOM
   NSW    =    500    number of steps for IOM
   NBLOCK =      1;   KBLOCK =    500    inner block; outer block 
   IBRION =      2    ionic relax: 0-MD 1-quasi-New 2-CG
   NFREE  =      1    steps in history (QN), initial steepest desc. (CG)
   ISIF   =      2    stress and relaxation
   IWAVPR =     11    prediction:  0-non 1-charg 2-wave 3-comb
   ISYM   =      2    0-nonsym 1-usesym 2-fastsym
   LCORR  =      T    Harris-Foulkes like correction to forces

   POTIM  = 0.1000    time-step for ionic-motion
   TEIN   =    0.0    initial temperature
   TEBEG  =    0.0;   TEEND  =   0.0 temperature during run
   SMASS  =  -3.00    Nose mass-parameter (am)
   estimated Nose-frequenzy (Omega)   =  0.10E-29 period in steps =****** mass=  -0.254E-26a.u.
   SCALEE = 1.0000    scale energy and forces
   NPACO  =    256;   APACO  = 16.0  distance and # of slots for P.C.
   PSTRESS=    0.0 pullay stress

  Mass of Ions in am
   POMASS = 106.42 63.55 12.01 16.00  1.00
  Ionic Valenz
   ZVAL   =  10.00 11.00  4.00  6.00  1.00
  Atomic Wigner-Seitz radii
   RWIGS  =  -1.00 -1.00 -1.00 -1.00 -1.00
  virtual crystal weights 
   VCA    =   1.00  1.00  1.00  1.00  1.00
   NELECT =     705.0000    total number of electrons
   NUPDOWN=      -1.0000    fix difference up-down

 DOS related values:
   EMIN   =  10.00;   EMAX   =-10.00  energy-range for DOS
   EFERMI =   0.00
   ISMEAR =     1;   SIGMA  =   0.10  broadening in eV -4-tet -1-fermi 0-gaus

 Electronic relaxation 2 (details)
   IALGO  =     68    algorithm
   LDIAG  =      T    sub-space diagonalisation (order eigenvalues)
   LSUBROT=      F    optimize rotation matrix (better conditioning)
   TURBO    =      0    0=normal 1=particle mesh
   IRESTART =      0    0=no restart 2=restart with 2 vectors
   NREBOOT  =      0    no. of reboots
   NMIN     =      0    reboot dimension
   EREF     =   0.00    reference energy to select bands
   IMIX   =      4    mixing-type and parameters
     AMIX     =   0.40;   BMIX     =  1.00
     AMIX_MAG =   1.60;   BMIX_MAG =  1.00
     AMIN     =   0.10
     WC   =   100.;   INIMIX=   1;  MIXPRE=   1;  MAXMIX= -45

 Intra band minimization:
   WEIMIN = 0.0010     energy-eigenvalue tresh-hold
   EBREAK =  0.59E-09  absolut break condition
   DEPER  =   0.30     relativ break condition  

   TIME   =   0.40     timestep for ELM

  volume/ion in A,a.u.               =      26.15       176.50
  Fermi-wavevector in a.u.,A,eV,Ry     =   1.202604  2.272591 19.677501  1.446255
  Thomas-Fermi vector in A             =   2.338380
 
 Write flags
   LWAVE        =      F    write WAVECAR
   LDOWNSAMPLE  =      F    k-point downsampling of WAVECAR
   LCHARG       =      F    write CHGCAR
   LVTOT        =      F    write LOCPOT, total local potential
   LVHAR        =      F    write LOCPOT, Hartree potential only
   LELF         =      F    write electronic localiz. function (ELF)
   LORBIT       =      0    0 simple, 1 ext, 2 COOP (PROOUT), +10 PAW based schemes


 Dipole corrections
   LMONO  =      F    monopole corrections only (constant potential shift)
   LDIPOL =      T    correct potential (dipole corrections)
   IDIPOL =      3    1-x, 2-y, 3-z, 4-all directions 
   EPSILON=  1.0000000 bulk dielectric constant

 Exchange correlation treatment:
   GGA     =    --    GGA type
   LEXCH   =     8    internal setting for exchange type
   VOSKOWN=      0    Vosko Wilk Nusair interpolation
   LHFCALC =     F    Hartree Fock is set to
   LHFONE  =     F    Hartree Fock one center treatment
   AEXX    =    0.0000 exact exchange contribution

 Linear response parameters
   LEPSILON=     F    determine dielectric tensor
   LRPA    =     F    only Hartree local field effects (RPA)
   LNABLA  =     F    use nabla operator in PAW spheres
   LVEL    =     F    velocity operator in full k-point grid
   LINTERFAST=   F  fast interpolation
   KINTER  =     0    interpolate to denser k-point grid
   CSHIFT  =0.1000    complex shift for real part using Kramers Kronig
   OMEGAMAX=  -1.0    maximum frequency
   DEG_THRESHOLD= 0.2000000E-02 threshold for treating states as degnerate
   RTIME   =   -0.100 relaxation time in fs
  (WPLASMAI=    0.000 imaginary part of plasma frequency in eV, 0.658/RTIME)
   DFIELD  = 0.0000000 0.0000000 0.0000000 field for delta impulse in time
 
 Orbital magnetization related:
   ORBITALMAG=     F  switch on orbital magnetization
   LCHIMAG   =     F  perturbation theory with respect to B field
   DQ        =  0.001000  dq finite difference perturbation B field
   LLRAUG    =     F  two centre corrections for induced B field



--------------------------------------------------------------------------------------------------------


 conjugate gradient relaxation of ions
   using selective dynamics as specified on POSCAR
   WARNING: If single coordinates had been selected the selection of coordinates
            is made according to the corresponding   d i r e c t   coordinates!
            Don't support selection of single cartesian coordinates -- sorry ...
  !
 charge density and potential will be updated during run
 non-spin polarized calculation
 RMM-DIIS sequential band-by-band and
  variant of blocked Davidson during initial phase
 perform sub-space diagonalisation
    before iterative eigenvector-optimisation
 modified Broyden-mixing scheme, WC =      100.0
 initial mixing is a Kerker type mixing with AMIX =  0.4000 and BMIX =      1.0000
 Hartree-type preconditioning will be used
 using additional bands           71
 real space projection scheme for non local part
 use partial core corrections
 calculate Harris-corrections to forces 
   (improved forces if not selfconsistent)
 use gradient corrections 
 use of overlap-Matrix (Vanderbilt PP)
 Methfessel and Paxton  Order N= 1 SIGMA  =   0.10


--------------------------------------------------------------------------------------------------------


  energy-cutoff  :      400.00
  volume of cell :     1778.47
      direct lattice vectors                 reciprocal lattice vectors
    10.547599792  0.000000000  0.000000000     0.094808299  0.054737597  0.000000000
    -5.273799896  9.134489369  0.000000000     0.000000000  0.109475194  0.000000000
     0.000000000  0.000000000 18.458999634     0.000000000  0.000000000  0.054174117

  length of vectors
    10.547599792 10.547599792 18.458999634     0.109475194  0.109475194  0.054174117


 
 k-points in units of 2pi/SCALE and weight: K-POINTS                                
   0.02370207  0.04105320  0.00000000       0.167
   0.04740415 -0.00000000  0.00000000       0.167
   0.02370207  0.06842200  0.00000000       0.167
  -0.02370207  0.01368440  0.00000000       0.167
   0.00000000  0.02736880  0.00000000       0.167
   0.02370207  0.01368440  0.00000000       0.167
 
 k-points in reciprocal lattice and weights: K-POINTS                                
   0.25000000  0.25000000  0.00000000       0.167
   0.50000000 -0.25000000  0.00000000       0.167
   0.25000000  0.50000000  0.00000000       0.167
  -0.25000000  0.25000000  0.00000000       0.167
   0.00000000  0.25000000  0.00000000       0.167
   0.25000000  0.00000000  0.00000000       0.167
 
 position of ions in fractional coordinates (direct lattice) 
   0.33328094  0.16662104  0.00025874
   0.16681091  0.33311012  0.11564954
   0.00007253  0.99997400  0.22880143
   0.33391764  0.16822828  0.34446762
   0.83342650  0.16655647  0.99928265
   0.66692766  0.33311307  0.11631678
   0.49978001  0.00000873  0.22926663
   0.83329689  0.16687208  0.34507810
   0.33345177  0.66670684  0.99987660
   0.16667354  0.83354479  0.11701933
   0.99986201  0.50025925  0.22912434
   0.33299604  0.66708335  0.34616780
   0.83337857  0.66674865  0.00027101
   0.66700997  0.83329032  0.11571772
   0.50005918  0.50001458  0.22867620
   0.83161282  0.66611733  0.34458295
   0.33799217  0.41934988  0.00297043
   0.16832594  0.08405629  0.11614210
   0.99870110  0.24939244  0.22878836
   0.32958568  0.41564688  0.34080871
   0.08145829  0.41898422  0.00293904
   0.41597957  0.08390910  0.11622816
   0.25040302  0.24930436  0.22871630
   0.08484605  0.41355208  0.34145055
   0.08114235  0.16200593  0.00293545
   0.41619555  0.33186338  0.11593132
   0.25095756  0.00087816  0.22982917
   0.08543620  0.17139770  0.34176679
   0.83837652  0.41914369  0.00357881
   0.66852385  0.08385675  0.11593413
   0.49890282  0.24918362  0.22916807
   0.82918769  0.41481524  0.34195740
   0.58144169  0.41865004  0.00327736
   0.91619935  0.08384534  0.11568453
   0.75095996  0.24903191  0.22916366
   0.58557430  0.41461656  0.34199220
   0.58088543  0.16165058  0.00357177
   0.91623238  0.33149544  0.11584555
   0.75070077  0.00130786  0.22888173
   0.58533390  0.17098862  0.34193996
   0.33735741  0.91841874  0.00349024
   0.16785520  0.58354567  0.11599654
   0.99915611  0.74912274  0.22985433
   0.32826777  0.91551257  0.34388183
   0.08141647  0.91865921  0.00377987
   0.41608784  0.58408200  0.11570315
   0.25138392  0.74848725  0.22865744
   0.08320880  0.91670445  0.34192342
   0.08166550  0.66273873  0.00358168
   0.41650514  0.83222129  0.11600208
   0.25090182  0.50126814  0.22874057
   0.08416906  0.67137846  0.34394600
   0.83802569  0.91885873  0.00293737
   0.66828702  0.58396669  0.11595631
   0.49886924  0.74911454  0.22883482
   0.82860267  0.91439040  0.34182254
   0.58105903  0.91860163  0.00297941
   0.91612039  0.58421825  0.11616048
   0.75078266  0.74962774  0.22876056
   0.58651838  0.91513798  0.34170606
   0.58076867  0.66207625  0.00300036
   0.91603603  0.83172417  0.11614276
   0.75086893  0.50113755  0.22918925
   0.58432690  0.67043319  0.34108490
   0.33591511  0.53817624  0.52215279
   0.34680475  0.65451399  0.52664602
   0.32506909  0.42175365  0.51794786
   0.49886924  0.74911454  0.39360218
 
 position of ions in cartesian coordinates  (Angst):
   2.63658799  1.52199810  0.00477617
   0.00269858  3.04279090  2.13477475
  -5.27289775  9.13425184  4.22344560
   2.63482738  1.53667940  6.35852768
   7.91226363  1.52140834 18.44575799
   5.27771438  3.04281783  2.14709138
   5.27143347  0.00007976  4.23203267
   7.90923215  1.52429127  6.36979653
   0.00103740  6.09002652 18.45672188
  -2.63794266  7.61400598  2.16005969
   7.90787710  4.56961283  4.22940618
  -0.00575517  6.09346580  6.38991133
   5.27384465  6.09040842  0.00500262
   2.64074780  7.61168154  2.13603342
   2.63744721  4.56737787  4.22113385
   5.25854971  6.08464164  6.36065658
   1.35343875  3.83054703  0.05483118
   1.33213859  0.76781128  2.14386693
   9.21865373  2.27807257  4.22320424
   1.28429944  3.79672197  6.29098786
  -1.35044953  3.82720690  0.05425170
   3.94506621  0.76646680  2.14545559
   1.32636957  2.27726804  4.22187411
  -1.28606869  3.77758708  6.30283555
   0.00147012  1.47984148  0.05418550
   2.63968310  3.03140248  2.13997621
   2.64236869  0.00802153  4.24241659
  -0.00277031  1.56563044  6.30867296
   6.63238004  3.82866362  0.06606123
   6.60907836  0.76598858  2.14002815
   3.94808270  2.27616514  4.23021333
   6.55828738  3.78912536  6.31219158
   3.92493768  3.82415431  0.06049675
   9.22152052  0.76588439  2.13542066
   6.60748071  2.27477933  4.23013183
   3.98979864  3.78731054  6.31283390
   5.27443421  1.47659549  0.06593126
   7.91581179  3.02804160  2.13839300
   7.91119385  0.01194665  4.22492770
   5.27210796  1.56189377  6.31186965
  -1.28524565  8.38928619  0.06442631
  -1.30703366  5.33039170  2.14118004
   6.58797537  6.84285373  4.24288101
  -1.36579307  8.36273983  6.34771452
  -3.98607649  8.39148278  0.06977253
   1.30839638  5.33529081  2.13576440
  -1.29587499  6.83704887  4.22078757
  -3.95686271  8.37362702  6.31156428
  -2.63377647  6.05377988  0.06611425
   0.00416100  7.60191655  2.14128244
   0.00282418  4.57882845  4.22232202
  -2.65293406  6.13269943  6.34889914
   3.99328256  8.39330527  0.05422095
   3.96910054  5.33423755  2.14043750
   1.31119294  6.84277884  4.22406182
   3.91745736  8.35248942  6.30970209
   1.28425697  8.39095683  0.05499690
   6.58182108  5.33653539  2.14420628
   3.96556827  6.84746664  4.22269101
   1.36010659  8.35931812  6.30755203
   2.63405778  6.04772851  0.05538370
   5.27563461  7.59737557  2.14387921
   5.27696582  4.57763559  4.23060430
   2.62751582  6.12406486  6.29608612
   0.70486429  4.91596515  9.63841811
   0.20618185  5.97865108  9.72135866
   1.20445430  3.85250422  9.56079933
   1.31119294  6.84277884  7.26550250
 


--------------------------------------------------------------------------------------------------------


 k-point  1 :   0.2500 0.2500 0.0000  plane waves:   32317
 k-point  2 :   0.5000-0.2500 0.0000  plane waves:   32317
 k-point  3 :   0.2500 0.5000 0.0000  plane waves:   32317
 k-point  4 :  -0.2500 0.2500 0.0000  plane waves:   32294
 k-point  5 :   0.0000 0.2500 0.0000  plane waves:   32294
 k-point  6 :   0.2500 0.0000 0.0000  plane waves:   32294

 maximum and minimum number of plane-waves per node :      8108     8034

 maximum number of plane-waves:     32317
 maximum index in each direction: 
   IXMAX=   17   IYMAX=   17   IZMAX=   30
   IXMIN=  -17   IYMIN=  -17   IZMIN=  -30


 real space projection operators:
  total allocation   :      14811.29 KBytes
  max/ min on nodes  :       3832.23       3573.78


 parallel 3D FFT for wavefunctions:
    minimum data exchange during FFTs selected (reduces bandwidth)
 parallel 3D FFT for charge:
    minimum data exchange during FFTs selected (reduces bandwidth)


 total amount of memory used by VASP MPI-rank0   142820. kBytes
=======================================================================

   base      :      30000. kBytes
   nonlr-proj:       6808. kBytes
   fftplans  :       6676. kBytes
   grid      :      13716. kBytes
   one-center:        264. kBytes
   wavefun   :      85356. kBytes
 
     INWAV:  cpu time    0.0000: real time    0.0000
 Broyden mixing: mesh for mixing (old mesh)
   NGX = 35   NGY = 35   NGZ = 61
  (NGX  =108   NGY  =108   NGZ  =180)
  gives a total of  74725 points

 initial charge density was supplied:
 charge density of overlapping atoms calculated
 number of electron     705.0000000 magnetization 
 keeping initial charge density in first step


--------------------------------------------------------------------------------------------------------


 Maximum index for non-local projection operator          518
 Maximum index for augmentation-charges          503 (set IRDMAX)


--------------------------------------------------------------------------------------------------------


 First call to EWALD:  gamma=   0.146
 Maximum number of real-space cells 3x 3x 2
 Maximum number of reciprocal cells 2x 2x 4

    FEWALD:  cpu time    0.0060: real time    0.0054


--------------------------------------- Iteration      1(   1)  ---------------------------------------


    POTLOK:  cpu time    0.1700: real time    0.1765
    SETDIJ:  cpu time    0.0160: real time    0.0164
     EDDAV:  cpu time   46.0960: real time   46.1165
       DOS:  cpu time    0.0020: real time    0.0026
    --------------------------------------------
      LOOP:  cpu time   46.2840: real time   46.3119

 eigenvalue-minimisations  :  5088
 total energy-change (2. order) : 0.5891788E+04  (-0.2695240E+05)
 number of electron     705.0000000 magnetization 
 augmentation part      705.0000000 magnetization 

 DIPCOR: dipole corrections for dipol
 direction  3 min pos   127,
 dipolmoment           0.000000      0.000000     -0.004883 electrons x Angstroem
 Tr[quadrupol]    -13352.176849

 energy correction for charged system         0.000000 eV
 dipol+quadrupol energy correction           -0.000001 eV
 added-field ion interaction         -0.124103 eV  (added to PSCEN)


 Free energy of the ion-electron system (eV)
  ---------------------------------------------------
  alpha Z        PSCENC =      3100.80967895
  Ewald energy   TEWEN  =    140843.80201269
  -Hartree energ DENC   =   -218828.33582591
  -exchange      EXHF   =         0.00000000
  -V(xc)+E(xc)   XCENC  =      1695.12456361
  PAW double counting   =     65006.54030136   -70929.02919328
  entropy T*S    EENTRO =        -0.00797285
  eigenvalues    EBANDS =      4256.36701948
  atomic energy  EATOM  =     80746.51725753
  Solvation  Ediel_sol  =         0.00000000
  ---------------------------------------------------
  free energy    TOTEN  =      5891.78784160 eV

  energy without entropy =     5891.79581445  energy(sigma->0) =     5891.79049922


--------------------------------------------------------------------------------------------------------




--------------------------------------- Iteration      1(   2)  ---------------------------------------


     EDDAV:  cpu time   46.1620: real time   46.1954
       DOS:  cpu time    0.0030: real time    0.0027
    --------------------------------------------
      LOOP:  cpu time   46.1650: real time   46.1981

 eigenvalue-minimisations  :  5088
 total energy-change (2. order) :-0.5390228E+04  (-0.5063415E+04)
 number of electron     705.0000000 magnetization 
 augmentation part      705.0000000 magnetization 

 DIPCOR: dipole corrections for dipol
 direction  3 min pos   127,
 dipolmoment           0.000000      0.000000     -0.004883 electrons x Angstroem
 Tr[quadrupol]    -13352.176849

 energy correction for charged system         0.000000 eV
 dipol+quadrupol energy correction           -0.000001 eV
 added-field ion interaction         -0.124103 eV  (added to PSCEN)


 Free energy of the ion-electron system (eV)
  ---------------------------------------------------
  alpha Z        PSCENC =      3100.80967895
  Ewald energy   TEWEN  =    140843.80201269
  -Hartree energ DENC   =   -218828.33582591
  -exchange      EXHF   =         0.00000000
  -V(xc)+E(xc)   XCENC  =      1695.12456361
  PAW double counting   =     65006.54030136   -70929.02919328
  entropy T*S    EENTRO =        -0.00225427
  eigenvalues    EBANDS =     -1133.86643540
  atomic energy  EATOM  =     80746.51725753
  Solvation  Ediel_sol  =         0.00000000
  ---------------------------------------------------
  free energy    TOTEN  =       501.56010530 eV

  energy without entropy =      501.56235956  energy(sigma->0) =      501.56085672


--------------------------------------------------------------------------------------------------------




--------------------------------------- Iteration      1(   3)  ---------------------------------------


     EDDAV:  cpu time   48.5536: real time   48.6230
       DOS:  cpu time    0.0020: real time    0.0028
    --------------------------------------------
      LOOP:  cpu time   48.5556: real time   48.6257

 eigenvalue-minimisations  :  5424
 total energy-change (2. order) :-0.7637352E+03  (-0.6893097E+03)
 number of electron     705.0000000 magnetization 
 augmentation part      705.0000000 magnetization 

 DIPCOR: dipole corrections for dipol
 direction  3 min pos   127,
 dipolmoment           0.000000      0.000000     -0.004883 electrons x Angstroem
 Tr[quadrupol]    -13352.176849

 energy correction for charged system         0.000000 eV
 dipol+quadrupol energy correction           -0.000001 eV
 added-field ion interaction         -0.124103 eV  (added to PSCEN)


 Free energy of the ion-electron system (eV)
  ---------------------------------------------------
  alpha Z        PSCENC =      3100.80967895
  Ewald energy   TEWEN  =    140843.80201269
  -Hartree energ DENC   =   -218828.33582591
  -exchange      EXHF   =         0.00000000
  -V(xc)+E(xc)   XCENC  =      1695.12456361
  PAW double counting   =     65006.54030136   -70929.02919328
  entropy T*S    EENTRO =        -0.02259139
  eigenvalues    EBANDS =     -1897.58128385
  atomic energy  EATOM  =     80746.51725753
  Solvation  Ediel_sol  =         0.00000000
  ---------------------------------------------------
  free energy    TOTEN  =      -262.17508027 eV

  energy without entropy =     -262.15248888  energy(sigma->0) =     -262.16754981


--------------------------------------------------------------------------------------------------------




--------------------------------------- Iteration      1(   4)  ---------------------------------------


     EDDAV:  cpu time   48.5606: real time   48.6384
       DOS:  cpu time    0.0030: real time    0.0029
    --------------------------------------------
      LOOP:  cpu time   48.5636: real time   48.6413

 eigenvalue-minimisations  :  5448
 total energy-change (2. order) :-0.6187791E+02  (-0.6044453E+02)
 number of electron     705.0000000 magnetization 
 augmentation part      705.0000000 magnetization 

 DIPCOR: dipole corrections for dipol
 direction  3 min pos   127,
 dipolmoment           0.000000      0.000000     -0.004883 electrons x Angstroem
 Tr[quadrupol]    -13352.176849

 energy correction for charged system         0.000000 eV
 dipol+quadrupol energy correction           -0.000001 eV
 added-field ion interaction         -0.124103 eV  (added to PSCEN)


 Free energy of the ion-electron system (eV)
  ---------------------------------------------------
  alpha Z        PSCENC =      3100.80967895
  Ewald energy   TEWEN  =    140843.80201269
  -Hartree energ DENC   =   -218828.33582591
  -exchange      EXHF   =         0.00000000
  -V(xc)+E(xc)   XCENC  =      1695.12456361
  PAW double counting   =     65006.54030136   -70929.02919328
  entropy T*S    EENTRO =        -0.02766937
  eigenvalues    EBANDS =     -1959.45411578
  atomic energy  EATOM  =     80746.51725753
  Solvation  Ediel_sol  =         0.00000000
  ---------------------------------------------------
  free energy    TOTEN  =      -324.05299019 eV

  energy without entropy =     -324.02532081  energy(sigma->0) =     -324.04376706


--------------------------------------------------------------------------------------------------------




--------------------------------------- Iteration      1(   5)  ---------------------------------------


     EDDAV:  cpu time   49.3845: real time   49.3958
       DOS:  cpu time    0.0030: real time    0.0029
    CHARGE:  cpu time    1.2288: real time    1.2286
    MIXING:  cpu time    0.0050: real time    0.0055
    --------------------------------------------
      LOOP:  cpu time   50.6213: real time   50.6328

 eigenvalue-minimisations  :  5560
 total energy-change (2. order) :-0.1319080E+01  (-0.1294659E+01)
 number of electron     705.0000443 magnetization 
 augmentation part      389.0724618 magnetization 

 DIPCOR: dipole corrections for dipol
 direction  3 min pos   127,
 dipolmoment           0.000000      0.000000     -0.004883 electrons x Angstroem
 Tr[quadrupol]    -13352.176849

 energy correction for charged system         0.000000 eV
 dipol+quadrupol energy correction           -0.000001 eV
 added-field ion interaction         -0.124103 eV  (added to PSCEN)


 Broyden mixing:
  rms(total) = 0.60364E+01    rms(broyden)= 0.60361E+01
  rms(prec ) = 0.65203E+01
  weight for this iteration     100.00

 Free energy of the ion-electron system (eV)
  ---------------------------------------------------
  alpha Z        PSCENC =      3100.80967895
  Ewald energy   TEWEN  =    140843.80201269
  -Hartree energ DENC   =   -218828.33582591
  -exchange      EXHF   =         0.00000000
  -V(xc)+E(xc)   XCENC  =      1695.12456361
  PAW double counting   =     65006.54030136   -70929.02919328
  entropy T*S    EENTRO =        -0.02779480
  eigenvalues    EBANDS =     -1960.77306988
  atomic energy  EATOM  =     80746.51725753
  Solvation  Ediel_sol  =         0.00000000
  ---------------------------------------------------
  free energy    TOTEN  =      -325.37206971 eV

  energy without entropy =     -325.34427491  energy(sigma->0) =     -325.36280478


--------------------------------------------------------------------------------------------------------




--------------------------------------- Iteration      1(   6)  ---------------------------------------


    POTLOK:  cpu time    0.1870: real time    0.2185
    SETDIJ:  cpu time    0.0170: real time    0.0170
    EDDIAG:  cpu time    6.7360: real time    6.7367
  RMM-DIIS:  cpu time   17.6603: real time   17.6701
    ORTHCH:  cpu time    1.7957: real time    1.7959
       DOS:  cpu time    0.0030: real time    0.0029
    CHARGE:  cpu time    1.1868: real time    1.1878
    MIXING:  cpu time    0.0060: real time    0.0056
    --------------------------------------------
      LOOP:  cpu time   27.5918: real time   27.6345

 eigenvalue-minimisations  :  5096
 total energy-change (2. order) :-0.1514737E+02  (-0.7731032E+02)
 number of electron     705.0000414 magnetization 
 augmentation part      427.9401569 magnetization 

 DIPCOR: dipole corrections for dipol
 direction  3 min pos   129,
 dipolmoment           0.000000      0.000000     -0.033444 electrons x Angstroem
 Tr[quadrupol]    -13354.482215

 energy correction for charged system         0.000000 eV
 dipol+quadrupol energy correction           -0.000057 eV
 added-field ion interaction         -1.342164 eV  (added to PSCEN)


 Broyden mixing:
  rms(total) = 0.46708E+01    rms(broyden)= 0.46705E+01
  rms(prec ) = 0.52664E+01
  weight for this iteration     100.00

 eigenvalues of (default mixing * dielectric matrix)
  average eigenvalue GAMMA=   0.5847
  0.5847

 Free energy of the ion-electron system (eV)
  ---------------------------------------------------
  alpha Z        PSCENC =      3099.59156210
  Ewald energy   TEWEN  =    140843.80201269
  -Hartree energ DENC   =   -217550.64315744
  -exchange      EXHF   =         0.00000000
  -V(xc)+E(xc)   XCENC  =      1630.50287051
  PAW double counting   =     64593.75263648   -70076.44308606
  entropy T*S    EENTRO =        -0.00748469
  eigenvalues    EBANDS =     -3627.59205526
  atomic energy  EATOM  =     80746.51725753
  Solvation  Ediel_sol  =         0.00000000
  ---------------------------------------------------
  free energy    TOTEN  =      -340.51944414 eV

  energy without entropy =     -340.51195945  energy(sigma->0) =     -340.51694924


--------------------------------------------------------------------------------------------------------




--------------------------------------- Iteration      1(   7)  ---------------------------------------


    POTLOK:  cpu time    0.1620: real time    0.1686
    SETDIJ:  cpu time    0.0170: real time    0.0165
    EDDIAG:  cpu time    6.7450: real time    6.7463
  RMM-DIIS:  cpu time   18.0912: real time   18.0977
    ORTHCH:  cpu time    1.7907: real time    1.7907
       DOS:  cpu time    0.0030: real time    0.0028
    CHARGE:  cpu time    1.1478: real time    1.1487
    MIXING:  cpu time    0.0070: real time    0.0063
    --------------------------------------------
      LOOP:  cpu time   27.9637: real time   27.9777

 eigenvalue-minimisations  :  5097
 total energy-change (2. order) : 0.5806777E+02  (-0.2409744E+02)
 number of electron     705.0000476 magnetization 
 augmentation part      417.4706688 magnetization 

 DIPCOR: dipole corrections for dipol
 direction  3 min pos   129,
 dipolmoment           0.000000      0.000000     -0.081344 electrons x Angstroem
 Tr[quadrupol]    -13356.673782

 energy correction for charged system         0.000000 eV
 dipol+quadrupol energy correction           -0.000337 eV
 added-field ion interaction         -3.264496 eV  (added to PSCEN)


 Broyden mixing:
  rms(total) = 0.17192E+01    rms(broyden)= 0.17189E+01
  rms(prec ) = 0.18366E+01
  weight for this iteration     100.00

 eigenvalues of (default mixing * dielectric matrix)
  average eigenvalue GAMMA=   0.6802
  0.9080  0.4523

 Free energy of the ion-electron system (eV)
  ---------------------------------------------------
  alpha Z        PSCENC =      3097.66895036
  Ewald energy   TEWEN  =    140843.80201269
  -Hartree energ DENC   =   -218062.27073326
  -exchange      EXHF   =         0.00000000
  -V(xc)+E(xc)   XCENC  =      1652.38001203
  PAW double counting   =     65668.18935674   -71526.84685906
  entropy T*S    EENTRO =        -0.01598259
  eigenvalues    EBANDS =     -2701.87569038
  atomic energy  EATOM  =     80746.51725753
  Solvation  Ediel_sol  =         0.00000000
  ---------------------------------------------------
  free energy    TOTEN  =      -282.45167594 eV

  energy without entropy =     -282.43569335  energy(sigma->0) =     -282.44634841


--------------------------------------------------------------------------------------------------------




--------------------------------------- Iteration      1(   8)  ---------------------------------------


    POTLOK:  cpu time    0.1630: real time    0.1638
    SETDIJ:  cpu time    0.0170: real time    0.0166
    EDDIAG:  cpu time    6.7360: real time    6.7375
  RMM-DIIS:  cpu time   17.9443: real time   17.9529
    ORTHCH:  cpu time    1.7917: real time    1.7919
       DOS:  cpu time    0.0030: real time    0.0029
    CHARGE:  cpu time    1.1508: real time    1.1503
    MIXING:  cpu time    0.0060: real time    0.0062
    --------------------------------------------
      LOOP:  cpu time   27.8118: real time   27.8221

 eigenvalue-minimisations  :  5121
 total energy-change (2. order) : 0.2877602E+01  (-0.8948221E+00)
 number of electron     705.0000430 magnetization 
 augmentation part      414.7488611 magnetization 

 DIPCOR: dipole corrections for dipol
 direction  3 min pos   129,
 dipolmoment           0.000000      0.000000     -0.028059 electrons x Angstroem
 Tr[quadrupol]    -13358.099379

 energy correction for charged system         0.000000 eV
 dipol+quadrupol energy correction           -0.000040 eV
 added-field ion interaction         -1.126078 eV  (added to PSCEN)


 Broyden mixing:
  rms(total) = 0.75273E+00    rms(broyden)= 0.75270E+00
  rms(prec ) = 0.84377E+00
  weight for this iteration     100.00

 eigenvalues of (default mixing * dielectric matrix)
  average eigenvalue GAMMA=   0.8240
  1.3412  0.5654  0.5654

 Free energy of the ion-electron system (eV)
  ---------------------------------------------------
  alpha Z        PSCENC =      3099.80766441
  Ewald energy   TEWEN  =    140843.80201269
  -Hartree energ DENC   =   -218148.51484285
  -exchange      EXHF   =         0.00000000
  -V(xc)+E(xc)   XCENC  =      1653.81395427
  PAW double counting   =     66446.27982579   -72367.65743056
  entropy T*S    EENTRO =         0.01639216
  eigenvalues    EBANDS =     -2553.63890696
  atomic energy  EATOM  =     80746.51725753
  Solvation  Ediel_sol  =         0.00000000
  ---------------------------------------------------
  free energy    TOTEN  =      -279.57407350 eV

  energy without entropy =     -279.59046566  energy(sigma->0) =     -279.57953755


--------------------------------------------------------------------------------------------------------




--------------------------------------- Iteration      1(   9)  ---------------------------------------


    POTLOK:  cpu time    0.2340: real time    0.2400
    SETDIJ:  cpu time    0.0170: real time    0.0167
    EDDIAG:  cpu time    6.7310: real time    6.7327
  RMM-DIIS:  cpu time   18.0413: real time   18.0507
    ORTHCH:  cpu time    1.7917: real time    1.7924
       DOS:  cpu time    0.0030: real time    0.0029
    CHARGE:  cpu time    1.1778: real time    1.1782
    MIXING:  cpu time    0.0070: real time    0.0065
    --------------------------------------------
      LOOP:  cpu time   28.0027: real time   28.0201

 eigenvalue-minimisations  :  5103
 total energy-change (2. order) :-0.3160538E+00  (-0.4809513E+00)
 number of electron     705.0000478 magnetization 
 augmentation part      414.3959340 magnetization 

 DIPCOR: dipole corrections for dipol
 direction  3 min pos   128,
 dipolmoment           0.000000      0.000000     -0.241947 electrons x Angstroem
 Tr[quadrupol]    -13360.403729

 energy correction for charged system         0.000000 eV
 dipol+quadrupol energy correction           -0.002979 eV
 added-field ion interaction         -7.929201 eV  (added to PSCEN)


 Broyden mixing:
  rms(total) = 0.75776E+00    rms(broyden)= 0.75773E+00
  rms(prec ) = 0.10018E+01
  weight for this iteration     100.00

 eigenvalues of (default mixing * dielectric matrix)
  average eigenvalue GAMMA=   0.7853
  1.6222  0.5751  0.5751  0.3689

 Free energy of the ion-electron system (eV)
  ---------------------------------------------------
  alpha Z        PSCENC =      3093.00160279
  Ewald energy   TEWEN  =    140843.80201269
  -Hartree energ DENC   =   -218195.40447070
  -exchange      EXHF   =         0.00000000
  -V(xc)+E(xc)   XCENC  =      1651.83944061
  PAW double counting   =     66998.67151628   -72953.48675868
  entropy T*S    EENTRO =        -0.00526342
  eigenvalues    EBANDS =     -2464.82546443
  atomic energy  EATOM  =     80746.51725753
  Solvation  Ediel_sol  =         0.00000000
  ---------------------------------------------------
  free energy    TOTEN  =      -279.89012732 eV

  energy without entropy =     -279.88486390  energy(sigma->0) =     -279.88837285


--------------------------------------------------------------------------------------------------------




--------------------------------------- Iteration      1(  10)  ---------------------------------------


    POTLOK:  cpu time    0.1770: real time    0.1780
    SETDIJ:  cpu time    0.0170: real time    0.0166
    EDDIAG:  cpu time    6.7350: real time    6.7375
  RMM-DIIS:  cpu time   17.8633: real time   17.8689
    ORTHCH:  cpu time    1.7877: real time    1.7883
       DOS:  cpu time    0.0030: real time    0.0029
    CHARGE:  cpu time    1.1468: real time    1.1469
    MIXING:  cpu time    0.0070: real time    0.0067
    --------------------------------------------
      LOOP:  cpu time   27.7368: real time   27.7459

 eigenvalue-minimisations  :  5120
 total energy-change (2. order) : 0.7459506E+00  (-0.1840514E+00)
 number of electron     705.0000446 magnetization 
 augmentation part      415.0960888 magnetization 

 DIPCOR: dipole corrections for dipol
 direction  3 min pos   127,
 dipolmoment           0.000000      0.000000      0.154811 electrons x Angstroem
 Tr[quadrupol]    -13360.626642

 energy correction for charged system         0.000000 eV
 dipol+quadrupol energy correction           -0.001220 eV
 added-field ion interaction          3.934227 eV  (added to PSCEN)


 Broyden mixing:
  rms(total) = 0.36988E+00    rms(broyden)= 0.36981E+00
  rms(prec ) = 0.66996E+00
  weight for this iteration     100.00

 eigenvalues of (default mixing * dielectric matrix)
  average eigenvalue GAMMA=   0.7034
  1.6914  0.5737  0.5737  0.4532  0.2249

 Free energy of the ion-electron system (eV)
  ---------------------------------------------------
  alpha Z        PSCENC =      3104.86679005
  Ewald energy   TEWEN  =    140843.80201269
  -Hartree energ DENC   =   -218157.67810109
  -exchange      EXHF   =         0.00000000
  -V(xc)+E(xc)   XCENC  =      1650.60059348
  PAW double counting   =     67215.32960460   -73179.67084388
  entropy T*S    EENTRO =         0.01339672
  eigenvalues    EBANDS =     -2502.92488688
  atomic energy  EATOM  =     80746.51725753
  Solvation  Ediel_sol  =         0.00000000
  ---------------------------------------------------
  free energy    TOTEN  =      -279.14417676 eV

  energy without entropy =     -279.15757348  energy(sigma->0) =     -279.14864233


--------------------------------------------------------------------------------------------------------




--------------------------------------- Iteration      1(  11)  ---------------------------------------


    POTLOK:  cpu time    0.1650: real time    0.1651
    SETDIJ:  cpu time    0.0170: real time    0.0169
    EDDIAG:  cpu time    6.7060: real time    6.7069
  RMM-DIIS:  cpu time   17.9573: real time   17.9654
    ORTHCH:  cpu time    1.7997: real time    1.8000
       DOS:  cpu time    0.0030: real time    0.0029
    CHARGE:  cpu time    1.1558: real time    1.1557
    MIXING:  cpu time    0.0070: real time    0.0070
    --------------------------------------------
      LOOP:  cpu time   27.8108: real time   27.8200

 eigenvalue-minimisations  :  5129
 total energy-change (2. order) : 0.4099844E+00  (-0.2714602E-01)
 number of electron     705.0000440 magnetization 
 augmentation part      415.3122043 magnetization 

 DIPCOR: dipole corrections for dipol
 direction  3 min pos   126,
 dipolmoment           0.000000      0.000000     -0.082251 electrons x Angstroem
 Tr[quadrupol]    -13360.539008

 energy correction for charged system         0.000000 eV
 dipol+quadrupol energy correction           -0.000344 eV
 added-field ion interaction         -1.484919 eV  (added to PSCEN)


 Broyden mixing:
  rms(total) = 0.16164E+00    rms(broyden)= 0.16160E+00
  rms(prec ) = 0.20195E+00
  weight for this iteration     100.00

 eigenvalues of (default mixing * dielectric matrix)
  average eigenvalue GAMMA=   0.8035
  2.0832  0.8832  0.8207  0.5204  0.3405  0.1732

 Free energy of the ion-electron system (eV)
  ---------------------------------------------------
  alpha Z        PSCENC =      3099.44851920
  Ewald energy   TEWEN  =    140843.80201269
  -Hartree energ DENC   =   -218151.30487697
  -exchange      EXHF   =         0.00000000
  -V(xc)+E(xc)   XCENC  =      1650.26870656
  PAW double counting   =     67288.76335365   -73256.74444682
  entropy T*S    EENTRO =         0.01169557
  eigenvalues    EBANDS =     -2499.49641375
  atomic energy  EATOM  =     80746.51725753
  Solvation  Ediel_sol  =         0.00000000
  ---------------------------------------------------
  free energy    TOTEN  =      -278.73419233 eV

  energy without entropy =     -278.74588790  energy(sigma->0) =     -278.73809085


--------------------------------------------------------------------------------------------------------




--------------------------------------- Iteration      1(  12)  ---------------------------------------


    POTLOK:  cpu time    0.2130: real time    0.2726
    SETDIJ:  cpu time    0.0170: real time    0.0168
    EDDIAG:  cpu time    6.7320: real time    6.7333
  RMM-DIIS:  cpu time   17.8403: real time   17.8455
    ORTHCH:  cpu time    1.7967: real time    1.7968
       DOS:  cpu time    0.0020: real time    0.0029
    CHARGE:  cpu time    1.1568: real time    1.1563
    MIXING:  cpu time    0.0070: real time    0.0073
    --------------------------------------------
      LOOP:  cpu time   27.7648: real time   27.8314

 eigenvalue-minimisations  :  5110
 total energy-change (2. order) : 0.3984511E-01  (-0.1314304E-01)
 number of electron     705.0000445 magnetization 
 augmentation part      415.4525940 magnetization 

 DIPCOR: dipole corrections for dipol
 direction  3 min pos   126,
 dipolmoment           0.000000      0.000000     -0.033887 electrons x Angstroem
 Tr[quadrupol]    -13361.705982

 energy correction for charged system         0.000000 eV
 dipol+quadrupol energy correction           -0.000058 eV
 added-field ion interaction         -0.611786 eV  (added to PSCEN)


 Broyden mixing:
  rms(total) = 0.10727E+00    rms(broyden)= 0.10726E+00
  rms(prec ) = 0.12708E+00
  weight for this iteration     100.00

 eigenvalues of (default mixing * dielectric matrix)
  average eigenvalue GAMMA=   0.7971
  2.2878  1.1278  0.7351  0.4993  0.4281  0.3271  0.1745

 Free energy of the ion-electron system (eV)
  ---------------------------------------------------
  alpha Z        PSCENC =      3100.32193893
  Ewald energy   TEWEN  =    140843.80201269
  -Hartree energ DENC   =   -218166.99602080
  -exchange      EXHF   =         0.00000000
  -V(xc)+E(xc)   XCENC  =      1649.52405122
  PAW double counting   =     67529.88767570   -73511.14621878
  entropy T*S    EENTRO =         0.01022528
  eigenvalues    EBANDS =     -2470.61526900
  atomic energy  EATOM  =     80746.51725753
  Solvation  Ediel_sol  =         0.00000000
  ---------------------------------------------------
  free energy    TOTEN  =      -278.69434721 eV

  energy without entropy =     -278.70457250  energy(sigma->0) =     -278.69775564


--------------------------------------------------------------------------------------------------------




--------------------------------------- Iteration      1(  13)  ---------------------------------------


    POTLOK:  cpu time    0.1660: real time    0.1664
    SETDIJ:  cpu time    0.0160: real time    0.0168
    EDDIAG:  cpu time    6.7670: real time    6.7855
  RMM-DIIS:  cpu time   17.8353: real time   17.8431
    ORTHCH:  cpu time    1.7937: real time    1.7941
       DOS:  cpu time    0.0030: real time    0.0029
    CHARGE:  cpu time    1.1588: real time    1.1589
    MIXING:  cpu time    0.0070: real time    0.0074
    --------------------------------------------
      LOOP:  cpu time   27.7468: real time   27.7751

 eigenvalue-minimisations  :  5110
 total energy-change (2. order) : 0.2454931E-01  (-0.5089055E-02)
 number of electron     705.0000445 magnetization 
 augmentation part      415.5542802 magnetization 

 DIPCOR: dipole corrections for dipol
 direction  3 min pos   125,
 dipolmoment           0.000000      0.000000     -0.045671 electrons x Angstroem
 Tr[quadrupol]    -13362.205032

 energy correction for charged system         0.000000 eV
 dipol+quadrupol energy correction           -0.000106 eV
 added-field ion interaction         -0.488408 eV  (added to PSCEN)


 Broyden mixing:
  rms(total) = 0.35258E-01    rms(broyden)= 0.35253E-01
  rms(prec ) = 0.47695E-01
  weight for this iteration     100.00

 eigenvalues of (default mixing * dielectric matrix)
  average eigenvalue GAMMA=   0.8483
  2.3515  1.4703  0.7599  0.7599  0.5313  0.3946  0.3453  0.1736

 Free energy of the ion-electron system (eV)
  ---------------------------------------------------
  alpha Z        PSCENC =      3100.44526873
  Ewald energy   TEWEN  =    140843.80201269
  -Hartree energ DENC   =   -218174.33709556
  -exchange      EXHF   =         0.00000000
  -V(xc)+E(xc)   XCENC  =      1649.26636663
  PAW double counting   =     67604.48174530   -73588.32404064
  entropy T*S    EENTRO =         0.00977257
  eigenvalues    EBANDS =     -2460.53108515
  atomic energy  EATOM  =     80746.51725753
  Solvation  Ediel_sol  =         0.00000000
  ---------------------------------------------------
  free energy    TOTEN  =      -278.66979790 eV

  energy without entropy =     -278.67957047  energy(sigma->0) =     -278.67305543


--------------------------------------------------------------------------------------------------------




--------------------------------------- Iteration      1(  14)  ---------------------------------------


    POTLOK:  cpu time    0.1660: real time    0.1660
    SETDIJ:  cpu time    0.0170: real time    0.0168
    EDDIAG:  cpu time    6.7230: real time    6.7248
  RMM-DIIS:  cpu time   17.7863: real time   17.7937
    ORTHCH:  cpu time    1.7947: real time    1.7947
       DOS:  cpu time    0.0030: real time    0.0026
    CHARGE:  cpu time    1.1538: real time    1.1541
    MIXING:  cpu time    0.0080: real time    0.0079
    --------------------------------------------
      LOOP:  cpu time   27.6518: real time   27.6606

 eigenvalue-minimisations  :  5111
 total energy-change (2. order) : 0.5106126E-02  (-0.1410465E-02)
 number of electron     705.0000445 magnetization 
 augmentation part      415.6123984 magnetization 

 DIPCOR: dipole corrections for dipol
 direction  3 min pos   125,
 dipolmoment           0.000000      0.000000     -0.023459 electrons x Angstroem
 Tr[quadrupol]    -13362.877948

 energy correction for charged system         0.000000 eV
 dipol+quadrupol energy correction           -0.000028 eV
 added-field ion interaction         -0.250877 eV  (added to PSCEN)


 Broyden mixing:
  rms(total) = 0.26758E-01    rms(broyden)= 0.26756E-01
  rms(prec ) = 0.39946E-01
  weight for this iteration     100.00

 eigenvalues of (default mixing * dielectric matrix)
  average eigenvalue GAMMA=   0.8324
  2.3783  1.6683  0.7858  0.7858  0.4952  0.4370  0.4370  0.3304  0.1734

 Free energy of the ion-electron system (eV)
  ---------------------------------------------------
  alpha Z        PSCENC =      3100.68287836
  Ewald energy   TEWEN  =    140843.80201269
  -Hartree energ DENC   =   -218189.89924337
  -exchange      EXHF   =         0.00000000
  -V(xc)+E(xc)   XCENC  =      1649.19227100
  PAW double counting   =     67635.55293341   -73618.19214935
  entropy T*S    EENTRO =         0.00973394
  eigenvalues    EBANDS =     -2446.33038598
  atomic energy  EATOM  =     80746.51725753
  Solvation  Ediel_sol  =         0.00000000
  ---------------------------------------------------
  free energy    TOTEN  =      -278.66469178 eV

  energy without entropy =     -278.67442572  energy(sigma->0) =     -278.66793642


--------------------------------------------------------------------------------------------------------




--------------------------------------- Iteration      1(  15)  ---------------------------------------


    POTLOK:  cpu time    0.3349: real time    0.3403
    SETDIJ:  cpu time    0.0170: real time    0.0168
    EDDIAG:  cpu time    6.7020: real time    6.7048
  RMM-DIIS:  cpu time   18.1282: real time   18.1356
    ORTHCH:  cpu time    1.7987: real time    1.8002
       DOS:  cpu time    0.0030: real time    0.0029
    CHARGE:  cpu time    1.1568: real time    1.1580
    MIXING:  cpu time    0.0090: real time    0.0083
    --------------------------------------------
      LOOP:  cpu time   28.1497: real time   28.1668

 eigenvalue-minimisations  :  5112
 total energy-change (2. order) : 0.2997073E-02  (-0.3596760E-03)
 number of electron     705.0000445 magnetization 
 augmentation part      415.5964078 magnetization 

 DIPCOR: dipole corrections for dipol
 direction  3 min pos   125,
 dipolmoment           0.000000      0.000000     -0.019075 electrons x Angstroem
 Tr[quadrupol]    -13363.299412

 energy correction for charged system         0.000000 eV
 dipol+quadrupol energy correction           -0.000019 eV
 added-field ion interaction         -0.203989 eV  (added to PSCEN)


 Broyden mixing:
  rms(total) = 0.17449E-01    rms(broyden)= 0.17448E-01
  rms(prec ) = 0.28503E-01
  weight for this iteration     100.00

 eigenvalues of (default mixing * dielectric matrix)
  average eigenvalue GAMMA=   0.8838
  2.1385  2.1385  0.9739  0.9739  0.7320  0.1735  0.5279  0.4573  0.3394  0.3830

 Free energy of the ion-electron system (eV)
  ---------------------------------------------------
  alpha Z        PSCENC =      3100.72977556
  Ewald energy   TEWEN  =    140843.80201269
  -Hartree energ DENC   =   -218201.46127555
  -exchange      EXHF   =         0.00000000
  -V(xc)+E(xc)   XCENC  =      1649.24271985
  PAW double counting   =     67645.27322504   -73627.54599108
  entropy T*S    EENTRO =         0.00989582
  eigenvalues    EBANDS =     -2435.22931457
  atomic energy  EATOM  =     80746.51725753
  Solvation  Ediel_sol  =         0.00000000
  ---------------------------------------------------
  free energy    TOTEN  =      -278.66169470 eV

  energy without entropy =     -278.67159052  energy(sigma->0) =     -278.66499331


--------------------------------------------------------------------------------------------------------




--------------------------------------- Iteration      1(  16)  ---------------------------------------


    POTLOK:  cpu time    0.1650: real time    0.1713
    SETDIJ:  cpu time    0.0170: real time    0.0167
    EDDIAG:  cpu time    6.6950: real time    6.6984
  RMM-DIIS:  cpu time   17.8903: real time   17.8957
    ORTHCH:  cpu time    1.7957: real time    1.7965
       DOS:  cpu time    0.0030: real time    0.0029
    CHARGE:  cpu time    1.1478: real time    1.1474
    MIXING:  cpu time    0.0080: real time    0.0085
    --------------------------------------------
      LOOP:  cpu time   27.7218: real time   27.7374

 eigenvalue-minimisations  :  5107
 total energy-change (2. order) : 0.3292784E-02  (-0.3213253E-03)
 number of electron     705.0000445 magnetization 
 augmentation part      415.5331414 magnetization 

 DIPCOR: dipole corrections for dipol
 direction  3 min pos   125,
 dipolmoment           0.000000      0.000000     -0.013453 electrons x Angstroem
 Tr[quadrupol]    -13364.031228

 energy correction for charged system         0.000000 eV
 dipol+quadrupol energy correction           -0.000009 eV
 added-field ion interaction         -0.143866 eV  (added to PSCEN)


 Broyden mixing:
  rms(total) = 0.10195E-01    rms(broyden)= 0.10193E-01
  rms(prec ) = 0.15914E-01
  weight for this iteration     100.00

 eigenvalues of (default mixing * dielectric matrix)
  average eigenvalue GAMMA=   0.9833
  2.4747  2.4747  1.5474  0.8862  0.8862  0.1735  0.6237  0.5664  0.4624  0.3396
  0.3813

 Free energy of the ion-electron system (eV)
  ---------------------------------------------------
  alpha Z        PSCENC =      3100.78990809
  Ewald energy   TEWEN  =    140843.80201269
  -Hartree energ DENC   =   -218221.59821390
  -exchange      EXHF   =         0.00000000
  -V(xc)+E(xc)   XCENC  =      1649.41658431
  PAW double counting   =     67646.52243661   -73628.51045202
  entropy T*S    EENTRO =         0.01051795
  eigenvalues    EBANDS =     -2415.60845317
  atomic energy  EATOM  =     80746.51725753
  Solvation  Ediel_sol  =         0.00000000
  ---------------------------------------------------
  free energy    TOTEN  =      -278.65840192 eV

  energy without entropy =     -278.66891987  energy(sigma->0) =     -278.66190790


--------------------------------------------------------------------------------------------------------




--------------------------------------- Iteration      1(  17)  ---------------------------------------


    POTLOK:  cpu time    0.1660: real time    0.1658
    SETDIJ:  cpu time    0.0170: real time    0.0168
    EDDIAG:  cpu time    6.7010: real time    6.7022
  RMM-DIIS:  cpu time   17.9503: real time   17.9550
    ORTHCH:  cpu time    1.7977: real time    1.7980
       DOS:  cpu time    0.0030: real time    0.0030
    CHARGE:  cpu time    1.1388: real time    1.1394
    MIXING:  cpu time    0.0090: real time    0.0087
    --------------------------------------------
      LOOP:  cpu time   27.7828: real time   27.7889

 eigenvalue-minimisations  :  5100
 total energy-change (2. order) : 0.9584244E-03  (-0.1049674E-03)
 number of electron     705.0000445 magnetization 
 augmentation part      415.5481328 magnetization 

 DIPCOR: dipole corrections for dipol
 direction  3 min pos   125,
 dipolmoment           0.000000      0.000000     -0.001606 electrons x Angstroem
 Tr[quadrupol]    -13364.637734

 energy correction for charged system         0.000000 eV
 dipol+quadrupol energy correction           -0.000000 eV
 added-field ion interaction         -0.017178 eV  (added to PSCEN)


 Broyden mixing:
  rms(total) = 0.82638E-02    rms(broyden)= 0.82634E-02
  rms(prec ) = 0.12790E-01
  weight for this iteration     100.00

 eigenvalues of (default mixing * dielectric matrix)
  average eigenvalue GAMMA=   1.0053
  3.0463  2.3708  1.7323  0.9233  0.9233  0.6649  0.1735  0.5611  0.3389  0.3847
  0.4725  0.4725

 Free energy of the ion-electron system (eV)
  ---------------------------------------------------
  alpha Z        PSCENC =      3100.91660440
  Ewald energy   TEWEN  =    140843.80201269
  -Hartree energ DENC   =   -218234.07669308
  -exchange      EXHF   =         0.00000000
  -V(xc)+E(xc)   XCENC  =      1649.42179975
  PAW double counting   =     67648.46481671   -73630.35288307
  entropy T*S    EENTRO =         0.01057611
  eigenvalues    EBANDS =     -2403.36093453
  atomic energy  EATOM  =     80746.51725753
  Solvation  Ediel_sol  =         0.00000000
  ---------------------------------------------------
  free energy    TOTEN  =      -278.65744349 eV

  energy without entropy =     -278.66801960  energy(sigma->0) =     -278.66096886


--------------------------------------------------------------------------------------------------------




--------------------------------------- Iteration      1(  18)  ---------------------------------------


    POTLOK:  cpu time    0.2010: real time    0.2417
    SETDIJ:  cpu time    0.0160: real time    0.0167
    EDDIAG:  cpu time    6.7100: real time    6.7140
  RMM-DIIS:  cpu time   17.8553: real time   17.8612
    ORTHCH:  cpu time    1.7877: real time    1.7873
       DOS:  cpu time    0.0030: real time    0.0029
    CHARGE:  cpu time    1.1388: real time    1.1397
    MIXING:  cpu time    0.0090: real time    0.0090
    --------------------------------------------
      LOOP:  cpu time   27.7208: real time   27.7724

 eigenvalue-minimisations  :  5115
 total energy-change (2. order) :-0.1328336E-03  (-0.6775641E-04)
 number of electron     705.0000445 magnetization 
 augmentation part      415.5615243 magnetization 

 DIPCOR: dipole corrections for dipol
 direction  3 min pos   125,
 dipolmoment           0.000000      0.000000      0.001704 electrons x Angstroem
 Tr[quadrupol]    -13364.968357

 energy correction for charged system         0.000000 eV
 dipol+quadrupol energy correction           -0.000000 eV
 added-field ion interaction          0.018222 eV  (added to PSCEN)


 Broyden mixing:
  rms(total) = 0.52776E-02    rms(broyden)= 0.52772E-02
  rms(prec ) = 0.88618E-02
  weight for this iteration     100.00

 eigenvalues of (default mixing * dielectric matrix)
  average eigenvalue GAMMA=   1.0571
  3.3394  2.5356  1.8394  1.1789  0.9423  0.9423  0.6658  0.1735  0.5502  0.4636
  0.3392  0.3860  0.3860

 Free energy of the ion-electron system (eV)
  ---------------------------------------------------
  alpha Z        PSCENC =      3100.95200510
  Ewald energy   TEWEN  =    140843.80201269
  -Hartree energ DENC   =   -218240.13257707
  -exchange      EXHF   =         0.00000000
  -V(xc)+E(xc)   XCENC  =      1649.41758095
  PAW double counting   =     67645.69887042   -73627.39374392
  entropy T*S    EENTRO =         0.01058884
  eigenvalues    EBANDS =     -2397.52957087
  atomic energy  EATOM  =     80746.51725753
  Solvation  Ediel_sol  =         0.00000000
  ---------------------------------------------------
  free energy    TOTEN  =      -278.65757633 eV

  energy without entropy =     -278.66816516  energy(sigma->0) =     -278.66110594


--------------------------------------------------------------------------------------------------------




--------------------------------------- Iteration      1(  19)  ---------------------------------------


    POTLOK:  cpu time    0.1670: real time    0.1667
    SETDIJ:  cpu time    0.0170: real time    0.0169
    EDDIAG:  cpu time    6.7370: real time    6.7384
  RMM-DIIS:  cpu time   18.4132: real time   18.4187
    ORTHCH:  cpu time    1.7977: real time    1.7982
       DOS:  cpu time    0.0030: real time    0.0029
    CHARGE:  cpu time    1.1378: real time    1.1378
    MIXING:  cpu time    0.0090: real time    0.0095
    --------------------------------------------
      LOOP:  cpu time   28.2817: real time   28.2891

 eigenvalue-minimisations  :  5092
 total energy-change (2. order) :-0.2493381E-02  (-0.7121943E-04)
 number of electron     705.0000445 magnetization 
 augmentation part      415.5614035 magnetization 

 DIPCOR: dipole corrections for dipol
 direction  3 min pos   128,
 dipolmoment           0.000000      0.000000      0.042164 electrons x Angstroem
 Tr[quadrupol]    -13365.360677

 energy correction for charged system         0.000000 eV
 dipol+quadrupol energy correction           -0.000090 eV
 added-field ion interaction          1.381837 eV  (added to PSCEN)


 Broyden mixing:
  rms(total) = 0.15451E-01    rms(broyden)= 0.15450E-01
  rms(prec ) = 0.35782E-01
  weight for this iteration     100.00

 eigenvalues of (default mixing * dielectric matrix)
  average eigenvalue GAMMA=   1.0195
[...]
    CHARGE:  cpu time    1.1438: real time    1.1455
    MIXING:  cpu time    0.0060: real time    0.0058
    --------------------------------------------
      LOOP:  cpu time   33.9658: real time   34.1090

 eigenvalue-minimisations  :  7164
 total energy-change (2. order) :-0.5683548E-03  (-0.6579043E-03)
 number of electron     705.0000482 magnetization 
 augmentation part      415.5543883 magnetization 

 DIPCOR: dipole corrections for dipol
 direction  3 min pos   127,
 dipolmoment           0.000000      0.000000     -0.005864 electrons x Angstroem
 Tr[quadrupol]    -13364.308654

 energy correction for charged system         0.000000 eV
 dipol+quadrupol energy correction           -0.000002 eV
 added-field ion interaction         -0.149023 eV  (added to PSCEN)


 eigenvalues of (default mixing * dielectric matrix)
  average eigenvalue GAMMA=   0.5923
  0.5923  0.5923

  free energy =  -0.278676162246E+03  energy without entropy=  -0.278686794662E+03


--------------------------------------------------------------------------------------------------------




--------------------------------------- Iteration      3(   4)  ---------------------------------------


    POTLOK:  cpu time    0.1750: real time    0.1748
    SETDIJ:  cpu time    0.0160: real time    0.0166
    EDDIAG:  cpu time    6.6170: real time    6.6197
  RMM-DIIS:  cpu time   17.9093: real time   17.9165
    ORTHCH:  cpu time    1.7797: real time    1.7814
       DOS:  cpu time    0.0030: real time    0.0029
    CHARGE:  cpu time    1.1368: real time    1.1371
    MIXING:  cpu time    0.0060: real time    0.0059
    --------------------------------------------
      LOOP:  cpu time   27.6428: real time   27.6549

 eigenvalue-minimisations  :  5218
 total energy-change (2. order) : 0.1193315E-03  (-0.2809740E-04)
 number of electron     705.0000482 magnetization 
 augmentation part      415.5568438 magnetization 

 DIPCOR: dipole corrections for dipol
 direction  3 min pos   127,
 dipolmoment           0.000000      0.000000     -0.007517 electrons x Angstroem
 Tr[quadrupol]    -13364.307750

 energy correction for charged system         0.000000 eV
 dipol+quadrupol energy correction           -0.000003 eV
 added-field ion interaction         -0.191036 eV  (added to PSCEN)


 eigenvalues of (default mixing * dielectric matrix)
  average eigenvalue GAMMA=   0.6923
  0.8449  0.8449  0.3870

  free energy =  -0.278676042915E+03  energy without entropy=  -0.278686658371E+03


--------------------------------------------------------------------------------------------------------




--------------------------------------- Iteration      3(   5)  ---------------------------------------


    POTLOK:  cpu time    0.1870: real time    0.1925
    SETDIJ:  cpu time    0.0170: real time    0.0166
    EDDIAG:  cpu time    6.6120: real time    6.6126
  RMM-DIIS:  cpu time   17.8853: real time   17.8880
    ORTHCH:  cpu time    1.7767: real time    1.7773
       DOS:  cpu time    0.0030: real time    0.0029
    CHARGE:  cpu time    1.1368: real time    1.1373
    MIXING:  cpu time    0.0060: real time    0.0061
    --------------------------------------------
      LOOP:  cpu time   27.6238: real time   27.6333

 eigenvalue-minimisations  :  5200
 total energy-change (2. order) : 0.3445304E-04  (-0.6008986E-05)
 number of electron     705.0000482 magnetization 
 augmentation part      415.5572009 magnetization 

 DIPCOR: dipole corrections for dipol
 direction  3 min pos   127,
 dipolmoment           0.000000      0.000000     -0.004916 electrons x Angstroem
 Tr[quadrupol]    -13364.309813

 energy correction for charged system         0.000000 eV
 dipol+quadrupol energy correction           -0.000001 eV
 added-field ion interaction         -0.124941 eV  (added to PSCEN)


 eigenvalues of (default mixing * dielectric matrix)
  average eigenvalue GAMMA=   0.8062
  1.3047  1.3047  0.4239  0.1917

  free energy =  -0.278676008462E+03  energy without entropy=  -0.278686624215E+03


--------------------------------------------------------------------------------------------------------




--------------------------------------- Iteration      3(   6)  ---------------------------------------


    POTLOK:  cpu time    0.1650: real time    0.1648
    SETDIJ:  cpu time    0.0170: real time    0.0175
    EDDIAG:  cpu time    6.6260: real time    6.6267
  RMM-DIIS:  cpu time   18.8191: real time   18.8217
    ORTHCH:  cpu time    1.7797: real time    1.7800
       DOS:  cpu time    0.0030: real time    0.0029
    CHARGE:  cpu time    1.1448: real time    1.1452
    MIXING:  cpu time    0.0070: real time    0.0068
    --------------------------------------------
      LOOP:  cpu time   28.5617: real time   28.5654

 eigenvalue-minimisations  :  5567
 total energy-change (2. order) : 0.9819804E-04  (-0.3298625E-04)
 number of electron     705.0000482 magnetization 
 augmentation part      415.5572176 magnetization 

 DIPCOR: dipole corrections for dipol
 direction  3 min pos   127,
 dipolmoment           0.000000      0.000000     -0.006884 electrons x Angstroem
 Tr[quadrupol]    -13364.306982

 energy correction for charged system         0.000000 eV
 dipol+quadrupol energy correction           -0.000002 eV
 added-field ion interaction         -0.174946 eV  (added to PSCEN)


 eigenvalues of (default mixing * dielectric matrix)
  average eigenvalue GAMMA=   0.9787
  1.8177  1.8177  0.6679  0.4150  0.1750

  free energy =  -0.278675910264E+03  energy without entropy=  -0.278686555779E+03


--------------------------------------------------------------------------------------------------------




--------------------------------------- Iteration      3(   7)  ---------------------------------------


    POTLOK:  cpu time    0.1630: real time    0.1635
    SETDIJ:  cpu time    0.0170: real time    0.0168
    EDDIAG:  cpu time    6.6300: real time    6.6312
  RMM-DIIS:  cpu time   22.3766: real time   22.3800
    ORTHCH:  cpu time    1.7917: real time    1.7924
       DOS:  cpu time    0.0030: real time    0.0029
    CHARGE:  cpu time    1.1458: real time    1.1458
    MIXING:  cpu time    0.0070: real time    0.0072
    --------------------------------------------
      LOOP:  cpu time   32.1341: real time   32.1398

 eigenvalue-minimisations  :  6705
 total energy-change (2. order) :-0.8042814E-04  (-0.7626515E-04)
 number of electron     705.0000482 magnetization 
 augmentation part      415.5556518 magnetization 

 DIPCOR: dipole corrections for dipol
 direction  3 min pos   127,
 dipolmoment           0.000000      0.000000     -0.006308 electrons x Angstroem
 Tr[quadrupol]    -13364.310687

 energy correction for charged system         0.000000 eV
 dipol+quadrupol energy correction           -0.000002 eV
 added-field ion interaction         -0.160310 eV  (added to PSCEN)


 eigenvalues of (default mixing * dielectric matrix)
  average eigenvalue GAMMA=   0.9631
  2.6937  1.0025  1.0025  0.5157  0.3922  0.1721

  free energy =  -0.278675990692E+03  energy without entropy=  -0.278686585685E+03


--------------------------------------------------------------------------------------------------------




--------------------------------------- Iteration      3(   8)  ---------------------------------------


    POTLOK:  cpu time    0.1710: real time    0.1781
    SETDIJ:  cpu time    0.0170: real time    0.0168
    EDDIAG:  cpu time    6.6560: real time    6.6571
  RMM-DIIS:  cpu time   17.5963: real time   17.5985
    ORTHCH:  cpu time    1.7817: real time    1.7821
       DOS:  cpu time    0.0030: real time    0.0029
    CHARGE:  cpu time    1.1488: real time    1.1489
    MIXING:  cpu time    0.0070: real time    0.0072
    --------------------------------------------
      LOOP:  cpu time   27.3808: real time   27.3915

 eigenvalue-minimisations  :  5143
 total energy-change (2. order) : 0.3898911E-04  (-0.5372979E-05)
 number of electron     705.0000482 magnetization 
 augmentation part      415.5563678 magnetization 

 DIPCOR: dipole corrections for dipol
 direction  3 min pos   127,
 dipolmoment           0.000000      0.000000     -0.006478 electrons x Angstroem
 Tr[quadrupol]    -13364.308843

 energy correction for charged system         0.000000 eV
 dipol+quadrupol energy correction           -0.000002 eV
 added-field ion interaction         -0.164626 eV  (added to PSCEN)


 eigenvalues of (default mixing * dielectric matrix)
  average eigenvalue GAMMA=   0.9216
  2.6165  1.0687  1.0687  0.7146  0.1724  0.4314  0.3789

  free energy =  -0.278675951703E+03  energy without entropy=  -0.278686588467E+03


--------------------------------------------------------------------------------------------------------




--------------------------------------- Iteration      3(   9)  ---------------------------------------


    POTLOK:  cpu time    0.1630: real time    0.1630
    SETDIJ:  cpu time    0.0170: real time    0.0168
    EDDIAG:  cpu time    6.6340: real time    6.6352
  RMM-DIIS:  cpu time   17.5983: real time   17.6032
    ORTHCH:  cpu time    1.7907: real time    1.7915
       DOS:  cpu time    0.0030: real time    0.0029
    CHARGE:  cpu time    1.1538: real time    1.2495
    MIXING:  cpu time    0.0070: real time    0.0075
    --------------------------------------------
      LOOP:  cpu time   27.3668: real time   27.4696

 eigenvalue-minimisations  :  5092
 total energy-change (2. order) : 0.4826571E-04  (-0.6299119E-05)
 number of electron     705.0000482 magnetization 
 augmentation part      415.5562419 magnetization 

 DIPCOR: dipole corrections for dipol
 direction  3 min pos   127,
 dipolmoment           0.000000      0.000000     -0.006554 electrons x Angstroem
 Tr[quadrupol]    -13364.309889

 energy correction for charged system         0.000000 eV
 dipol+quadrupol energy correction           -0.000002 eV
 added-field ion interaction         -0.166569 eV  (added to PSCEN)


 eigenvalues of (default mixing * dielectric matrix)
  average eigenvalue GAMMA=   0.9216
  2.4949  1.2287  1.2287  0.8180  0.1723  0.5844  0.4651  0.3811

  free energy =  -0.278675903437E+03  energy without entropy=  -0.278686521873E+03


--------------------------------------------------------------------------------------------------------




--------------------------------------- Iteration      3(  10)  ---------------------------------------


    POTLOK:  cpu time    0.1630: real time    0.1625
    SETDIJ:  cpu time    0.0170: real time    0.0169
    EDDIAG:  cpu time    6.6040: real time    6.6053
  RMM-DIIS:  cpu time   22.3036: real time   22.3113
    ORTHCH:  cpu time    1.7877: real time    1.7881
       DOS:  cpu time    0.0030: real time    0.0029
    CHARGE:  cpu time    1.1528: real time    1.1529
    MIXING:  cpu time    0.0080: real time    0.0078
    --------------------------------------------
      LOOP:  cpu time   32.0391: real time   32.0475

 eigenvalue-minimisations  :  6703
 total energy-change (2. order) : 0.1083924E-04  (-0.6104968E-05)
 number of electron     705.0000482 magnetization 
 augmentation part      415.5563945 magnetization 

 DIPCOR: dipole corrections for dipol
 direction  3 min pos   127,
 dipolmoment           0.000000      0.000000     -0.006538 electrons x Angstroem
 Tr[quadrupol]    -13364.309478

 energy correction for charged system         0.000000 eV
 dipol+quadrupol energy correction           -0.000002 eV
 added-field ion interaction         -0.166156 eV  (added to PSCEN)


 eigenvalues of (default mixing * dielectric matrix)
  average eigenvalue GAMMA=   0.9144
  2.3951  1.3025  1.3025  1.0770  0.7011  0.1723  0.4681  0.4262  0.3843

  free energy =  -0.278675892598E+03  energy without entropy=  -0.278686517059E+03


--------------------------------------------------------------------------------------------------------




--------------------------------------- Iteration      3(  11)  ---------------------------------------


    POTLOK:  cpu time    0.2000: real time    0.2047
    SETDIJ:  cpu time    0.0160: real time    0.0168
    EDDIAG:  cpu time    6.6250: real time    6.6277
  RMM-DIIS:  cpu time   18.3722: real time   18.3824
    ORTHCH:  cpu time    1.7887: real time    1.7898
       DOS:  cpu time    0.0030: real time    0.0030
    CHARGE:  cpu time    1.1518: real time    1.1512
    MIXING:  cpu time    0.0080: real time    0.0081
    --------------------------------------------
      LOOP:  cpu time   28.1647: real time   28.1838

 eigenvalue-minimisations  :  5466
 total energy-change (2. order) : 0.8359784E-06  (-0.1422720E-05)
 number of electron     705.0000482 magnetization 
 augmentation part      415.5563803 magnetization 

 DIPCOR: dipole corrections for dipol
 direction  3 min pos   127,
 dipolmoment           0.000000      0.000000     -0.006555 electrons x Angstroem
 Tr[quadrupol]    -13364.310066

 energy correction for charged system         0.000000 eV
 dipol+quadrupol energy correction           -0.000002 eV
 added-field ion interaction         -0.166580 eV  (added to PSCEN)


 eigenvalues of (default mixing * dielectric matrix)
  average eigenvalue GAMMA=   0.9244
  2.3970  1.3015  1.3015  1.2600  0.7908  0.7908  0.1723  0.4525  0.3888  0.3888

  free energy =  -0.278675891762E+03  energy without entropy=  -0.278686510957E+03


--------------------------------------------------------------------------------------------------------




--------------------------------------- Iteration      3(  12)  ---------------------------------------


    POTLOK:  cpu time    0.1630: real time    0.1628
    SETDIJ:  cpu time    0.0160: real time    0.0168
    EDDIAG:  cpu time    6.6820: real time    6.6827
  RMM-DIIS:  cpu time   10.5404: real time   10.5474
    ORTHCH:  cpu time    1.7797: real time    1.7811
       DOS:  cpu time    0.0030: real time    0.0028
    --------------------------------------------
      LOOP:  cpu time   19.1841: real time   19.1935

 eigenvalue-minimisations  :  2931
 total energy-change (2. order) :-0.3033201E-06  (-0.1551744E-06)
 number of electron     705.0000482 magnetization 
 augmentation part      415.5563803 magnetization 

 DIPCOR: dipole corrections for dipol
 direction  3 min pos   127,
 dipolmoment           0.000000      0.000000     -0.006574 electrons x Angstroem
 Tr[quadrupol]    -13364.310154

 energy correction for charged system         0.000000 eV
 dipol+quadrupol energy correction           -0.000002 eV
 added-field ion interaction         -0.167065 eV  (added to PSCEN)


  free energy =  -0.278675892065E+03  energy without entropy=  -0.278686513305E+03


--------------------------------------------------------------------------------------------------------




------------------------ aborting loop because EDIFF is reached ----------------------------------------


    CHARGE:  cpu time    1.1488: real time    1.1497
    FORLOC:  cpu time    0.0630: real time    0.0629
    FORNL :  cpu time    6.9119: real time    6.9129
    STRESS:  cpu time   20.4629: real time   20.4728
    FORCOR:  cpu time    0.1970: real time    0.1967
    FORHAR:  cpu time    0.0930: real time    0.0927
    MIXING:  cpu time    0.0080: real time    0.0083
    OFIELD:  cpu time    0.0000: real time    0.0001

 ---------------------------------------------------------------------------------------------

         DFTD3 V3.0 Rev 1        
 Edisp (eV)  -27.33954

 E6    (eV) :   -10.9181
 E8    (eV) :   -16.4214
 % E8        : 60.06
    FORVDW:  cpu time    0.6219: real time    0.6305

  FORCE on cell =-STRESS in cart. coord.  units (eV):
  Direction    XX          YY          ZZ          XY          YZ          ZX
  --------------------------------------------------------------------------------------
  Alpha Z  3100.93378  3100.93378  3100.93378
  Ewald  184049.02565184569.60005************  -305.35236    22.55511   -28.19820
  Hartree205793.06563206049.43210************  -144.06640     1.86951   -19.08433
  E(xc)   -3921.34615 -3920.02251 -3931.00503    -0.77271     0.16495     0.02638
  Local  ************************415164.15235   422.37024   -19.73858    46.14126
  n-local -2702.22574 -2706.45733 -2716.33007     2.52114    -0.09229     0.86786
  augment  3383.70729  3382.06067  3405.12089     1.04012    -0.06081     0.08805
  Kinetic  6276.26416  6235.82763  6350.15586    24.11893    -4.59287     0.78351
  Fock        0.00000     0.00000     0.00000     0.00000     0.00000     0.00000
  vdW       -27.96267   -27.92309   -17.87756     0.02083     0.00089     0.00468
  -------------------------------------------------------------------------------------
  Total     -43.18960   -43.39448    -5.73929    -0.12021     0.10591     0.62921
  in kB     -38.90843   -39.09300    -5.17038    -0.10829     0.09541     0.56684
  external pressure =      -27.72 kB  Pullay stress =        0.00 kB



--------------------------------------------------------------------------------------------------------



  FREE ENERGIE OF THE ION-ELECTRON SYSTEM (eV)
  ---------------------------------------------------
  free  energy   TOTEN  =      -306.01543140 eV

  energy  without entropy=     -306.02605264  energy(sigma->0) =     -306.01897181
 
 d Force = 0.9582055E-02[ 0.798E-02, 0.112E-01]  d Energy = 0.9656056E-02-0.740E-04
 d Force =-0.4716009E+00[-0.516E+00,-0.427E+00]  d Ewald  =-0.4715675E+00-0.334E-04


--------------------------------------------------------------------------------------------------------


    POTLOK:  cpu time    0.1820: real time    0.1820


--------------------------------------------------------------------------------------------------------


 stress matrix after NEB project (eV)
    -43.18960     -0.12021      0.62921
     -0.12021    -43.39448      0.10591
      0.62921      0.10591     -5.73929
  FORCES: max atom, RMS     0.298230    0.071312
  FORCE total and by dimension    0.588052    0.272568
  Stress total and by dimension   61.499635   43.394485


--------------------------------------------------------------------------------------------------------


    WAVPRE:  cpu time    0.0990: real time    0.1007
    FEWALD:  cpu time    0.0030: real time    0.0027

 real space projection operators:
  total allocation   :      14808.76 KBytes
  max/ min on nodes  :       3832.42       3573.30

    ORTHCH:  cpu time    4.0554: real time    4.0559
     LOOP+:  cpu time  393.3362: real time  393.6938


--------------------------------------- Iteration      4(   1)  ---------------------------------------


    POTLOK:  cpu time    0.1640: real time    0.1769
    SETDIJ:  cpu time    0.0160: real time    0.0167
     EDDAV:  cpu time   45.8210: real time   45.8301
       DOS:  cpu time    0.0030: real time    0.0028
    CHARGE:  cpu time    1.1508: real time    1.1511
    MIXING:  cpu time    0.0050: real time    0.0050
    --------------------------------------------
      LOOP:  cpu time   47.1598: real time   47.1827

 eigenvalue-minimisations  :  5120
 total energy-change (2. order) :-0.1792658E-02  (-0.6693772E+00)
 number of electron     705.0000501 magnetization 
 augmentation part      415.5459673 magnetization 

 DIPCOR: dipole corrections for dipol
 direction  3 min pos   127,
 dipolmoment           0.000000      0.000000     -0.006606 electrons x Angstroem
 Tr[quadrupol]    -13361.478800

 energy correction for charged system         0.000000 eV
 dipol+quadrupol energy correction           -0.000002 eV
 added-field ion interaction         -0.167882 eV  (added to PSCEN)


  free energy =  -0.278677684419E+03  energy without entropy=  -0.278688362799E+03


--------------------------------------------------------------------------------------------------------




--------------------------------------- Iteration      4(   2)  ---------------------------------------


    POTLOK:  cpu time    0.1630: real time    0.1626
    SETDIJ:  cpu time    0.0170: real time    0.0166
    EDDIAG:  cpu time    6.6430: real time    6.6442
