   68   68  500    1
  0.2615394E+02  0.1054760E-08  0.1054760E-08  0.1845900E-08  0.1000000E-15
  1.000000000000000E-004
  CAR 
 Pt(111)                                 
    705      6    424
