       N       E                     dE             d eps       ncg     rms          rms(c)
DAV:   1     0.589178784160E+04    0.58918E+04   -0.26952E+05  5088   0.158E+03
DAV:   2     0.501560105297E+03   -0.53902E+04   -0.50634E+04  5088   0.417E+02
DAV:   3    -0.262175080270E+03   -0.76374E+03   -0.68931E+03  5424   0.178E+02
DAV:   4    -0.324052990189E+03   -0.61878E+02   -0.60445E+02  5448   0.515E+01
DAV:   5    -0.325372069710E+03   -0.13191E+01   -0.12947E+01  5560   0.699E+00    0.604E+01
RMM:   6    -0.340519444139E+03   -0.15147E+02   -0.77310E+02  5096   0.760E+01    0.467E+01
RMM:   7    -0.282451675942E+03    0.58068E+02   -0.24097E+02  5097   0.426E+01    0.172E+01
RMM:   8    -0.279574073500E+03    0.28776E+01   -0.89482E+00  5121   0.806E+00    0.753E+00
RMM:   9    -0.279890127321E+03   -0.31605E+00   -0.48095E+00  5103   0.582E+00    0.758E+00
RMM:  10    -0.279144176760E+03    0.74595E+00   -0.18405E+00  5120   0.355E+00    0.370E+00
RMM:  11    -0.278734192326E+03    0.40998E+00   -0.27146E-01  5129   0.113E+00    0.162E+00
RMM:  12    -0.278694347214E+03    0.39845E-01   -0.13143E-01  5110   0.909E-01    0.107E+00
RMM:  13    -0.278669797903E+03    0.24549E-01   -0.50891E-02  5110   0.607E-01    0.353E-01
RMM:  14    -0.278664691777E+03    0.51061E-02   -0.14105E-02  5111   0.258E-01    0.268E-01
RMM:  15    -0.278661694704E+03    0.29971E-02   -0.35968E-03  5112   0.129E-01    0.174E-01
RMM:  16    -0.278658401919E+03    0.32928E-02   -0.32133E-03  5107   0.112E-01    0.102E-01
RMM:  17    -0.278657443495E+03    0.95842E-03   -0.10497E-03  5100   0.650E-02    0.826E-02
RMM:  18    -0.278657576328E+03   -0.13283E-03   -0.67756E-04  5115   0.636E-02    0.528E-02
RMM:  19    -0.278660069709E+03   -0.24934E-02   -0.71219E-04  5092   0.433E-02    0.155E-01
RMM:  20    -0.278660129048E+03   -0.59339E-04   -0.33144E-05  5118   0.109E-02    0.144E-01
RMM:  21    -0.278660502982E+03   -0.37393E-03   -0.12912E-03  5097   0.447E-02    0.124E-01
RMM:  22    -0.278662947486E+03   -0.24445E-02   -0.41283E-04  5100   0.353E-02    0.202E-01
RMM:  23    -0.278662468140E+03    0.47935E-03   -0.51209E-05  5095   0.127E-02    0.163E-01
RMM:  24    -0.278661641873E+03    0.82627E-03   -0.22744E-04  5094   0.206E-02    0.671E-02
RMM:  25    -0.278661740677E+03   -0.98804E-04   -0.73133E-05  5094   0.128E-02    0.269E-02
RMM:  26    -0.278661915454E+03   -0.17478E-03   -0.75863E-06  4491   0.430E-03    0.390E-02
RMM:  27    -0.278662039153E+03   -0.12370E-03   -0.70024E-06  3814   0.453E-03    0.311E-02
RMM:  28    -0.278662091379E+03   -0.52226E-04   -0.92435E-06  4670   0.439E-03    0.169E-02
RMM:  29    -0.278662106527E+03   -0.15148E-04   -0.16771E-06  3059   0.245E-03    0.143E-02
RMM:  30    -0.278662108080E+03   -0.15537E-05   -0.94723E-07  2969   0.153E-03    0.112E-02
RMM:  31    -0.278662105513E+03    0.25673E-05   -0.25356E-06  3155   0.231E-03    0.221E-03
RMM:  32    -0.278662107905E+03   -0.23918E-05   -0.11599E-06  2957   0.189E-03    0.304E-03
RMM:  33    -0.278662108885E+03   -0.98019E-06   -0.31354E-07  2876   0.147E-03
   1 F= -.30600183E+03 E0= -.30600535E+03  d E =-.306002E+03
       N       E                     dE             d eps       ncg     rms          rms(c)
DAV:   1    -0.278665895545E+03   -0.37876E-02   -0.18581E-01  5224   0.706E-01    0.554E-02
RMM:   2    -0.278666086655E+03   -0.19111E-03   -0.25628E-03  5131   0.106E-01    0.295E-02
RMM:   3    -0.278666213390E+03   -0.12674E-03   -0.74854E-04  7059   0.367E-02    0.572E-02
RMM:   4    -0.278666134644E+03    0.78746E-04   -0.51916E-05  5218   0.150E-02    0.320E-02
RMM:   5    -0.278666126522E+03    0.81217E-05   -0.10881E-05  5071   0.712E-03    0.271E-02
RMM:   6    -0.278666115799E+03    0.10723E-04   -0.50435E-05  5366   0.999E-03    0.123E-02
RMM:   7    -0.278666126298E+03   -0.10499E-04   -0.80728E-05  6824   0.115E-02    0.219E-02
RMM:   8    -0.278666120431E+03    0.58673E-05   -0.57933E-06  4548   0.566E-03    0.171E-02
RMM:   9    -0.278666115664E+03    0.47672E-05   -0.81204E-06  4414   0.421E-03    0.912E-03
RMM:  10    -0.278666114585E+03    0.10791E-05   -0.62870E-06  4027   0.365E-03    0.340E-03
RMM:  11    -0.278666114594E+03   -0.93278E-08   -0.25537E-06  2843   0.301E-03
   2 F= -.30600578E+03 E0= -.30600930E+03  d E =-.394729E-02
       N       E                     dE             d eps       ncg     rms          rms(c)
DAV:   1    -0.278673922730E+03   -0.78081E-02   -0.16731E+00  5168   0.212E+00    0.166E-01
RMM:   2    -0.278675593891E+03   -0.16712E-02   -0.23105E-02  5133   0.319E-01    0.805E-02
RMM:   3    -0.278676162246E+03   -0.56835E-03   -0.65790E-03  7164   0.105E-01    0.113E-01
RMM:   4    -0.278676042915E+03    0.11933E-03   -0.28097E-04  5218   0.408E-02    0.898E-02
RMM:   5    -0.278676008462E+03    0.34453E-04   -0.60090E-05  5200   0.134E-02    0.808E-02
RMM:   6    -0.278675910264E+03    0.98198E-04   -0.32986E-04  5567   0.257E-02    0.414E-02
RMM:   7    -0.278675990692E+03   -0.80428E-04   -0.76265E-04  6705   0.360E-02    0.630E-02
RMM:   8    -0.278675951703E+03    0.38989E-04   -0.53730E-05  5143   0.164E-02    0.537E-02
RMM:   9    -0.278675903437E+03    0.48266E-04   -0.62991E-05  5092   0.114E-02    0.296E-02
RMM:  10    -0.278675892598E+03    0.10839E-04   -0.61050E-05  6703   0.966E-03    0.985E-03
RMM:  11    -0.278675891762E+03    0.83598E-06   -0.14227E-05  5466   0.490E-03    0.142E-03
RMM:  12    -0.278675892065E+03   -0.30332E-06   -0.15517E-06  2931   0.227E-03
   3 F= -.30601543E+03 E0= -.30601897E+03  d E =-.136033E-01
       N       E                     dE             d eps       ncg     rms          rms(c)
DAV:   1    -0.278677684419E+03   -0.17927E-02   -0.66938E+00  5120   0.424E+00    0.333E-01
RMM:   2    -0.278684415736E+03   -0.67313E-02   -0.93024E-02  5137   0.644E-01    0.164E-01
RMM:   3    -0.278686743188E+03   -0.23275E-02   -0.26713E-02  7085   0.219E-01    0.232E-01
RMM:   4    -0.278686261681E+03    0.48151E-03   -0.13166E-03  5224   0.869E-02    0.185E-01
RMM:   5    -0.278686048336E+03    0.21335E-03   -0.22956E-04  5301   0.257E-02    0.164E-01
RMM:   6    -0.278685640907E+03    0.40743E-03   -0.12257E-03  5452   0.498E-02    0.848E-02
RMM:   7    -0.278685934121E+03   -0.29321E-03   -0.32070E-03  6635   0.727E-02    0.121E-01
RMM:   8    -0.278685805034E+03    0.12909E-03   -0.22020E-04  5213   0.325E-02    0.106E-01
RMM:   9    -0.278685616518E+03    0.18852E-03   -0.22145E-04  5090   0.219E-02    0.599E-02
RMM:  10    -0.278685571901E+03    0.44616E-04   -0.21718E-04  6713   0.182E-02    0.223E-02
